<?xml version="1.0"?> 
<VTKFile type="UnstructuredGrid"> 
   <UnstructuredGrid> 
      <Piece NumberOfPoints="6000"  NumberOfCells="1500">  
          <Points>  
             <DataArray type="Float64" NumberOfComponents="3" format="ascii">   
-500.0   0.0   0.0
-450.0   0.0   0.0
-500.0   30.0   0.0
-500.0   0.0   16.666666666666668
-450.0   0.0   0.0
-450.0   30.0   0.0
-500.0   30.0   0.0
-450.0   30.0   16.666666666666668
-500.0   0.0   16.666666666666668
-500.0   30.0   16.666666666666668
-450.0   30.0   16.666666666666668
-500.0   30.0   0.0
-500.0   0.0   16.666666666666668
-450.0   30.0   16.666666666666668
-450.0   0.0   16.666666666666668
-450.0   0.0   0.0
-500.0   0.0   16.666666666666668
-450.0   30.0   16.666666666666668
-450.0   0.0   0.0
-500.0   30.0   0.0
-500.0   0.0   16.666666666666668
-450.0   0.0   16.666666666666668
-500.0   30.0   16.666666666666668
-500.0   0.0   33.333333333333336
-450.0   0.0   16.666666666666668
-450.0   30.0   16.666666666666668
-500.0   30.0   16.666666666666668
-450.0   30.0   33.333333333333336
-500.0   0.0   33.333333333333336
-500.0   30.0   33.333333333333336
-450.0   30.0   33.333333333333336
-500.0   30.0   16.666666666666668
-500.0   0.0   33.333333333333336
-450.0   30.0   33.333333333333336
-450.0   0.0   33.333333333333336
-450.0   0.0   16.666666666666668
-500.0   0.0   33.333333333333336
-450.0   30.0   33.333333333333336
-450.0   0.0   16.666666666666668
-500.0   30.0   16.666666666666668
-500.0   0.0   33.333333333333336
-450.0   0.0   33.333333333333336
-500.0   30.0   33.333333333333336
-500.0   0.0   50.0
-450.0   0.0   33.333333333333336
-450.0   30.0   33.333333333333336
-500.0   30.0   33.333333333333336
-450.0   30.0   50.0
-500.0   0.0   50.0
-500.0   30.0   50.0
-450.0   30.0   50.0
-500.0   30.0   33.333333333333336
-500.0   0.0   50.0
-450.0   30.0   50.0
-450.0   0.0   50.0
-450.0   0.0   33.333333333333336
-500.0   0.0   50.0
-450.0   30.0   50.0
-450.0   0.0   33.333333333333336
-500.0   30.0   33.333333333333336
-500.0   30.0   0.0
-450.0   30.0   0.0
-500.0   60.0   0.0
-500.0   30.0   16.666666666666668
-450.0   30.0   0.0
-450.0   60.0   0.0
-500.0   60.0   0.0
-450.0   60.0   16.666666666666668
-500.0   30.0   16.666666666666668
-500.0   60.0   16.666666666666668
-450.0   60.0   16.666666666666668
-500.0   60.0   0.0
-500.0   30.0   16.666666666666668
-450.0   60.0   16.666666666666668
-450.0   30.0   16.666666666666668
-450.0   30.0   0.0
-500.0   30.0   16.666666666666668
-450.0   60.0   16.666666666666668
-450.0   30.0   0.0
-500.0   60.0   0.0
-500.0   30.0   16.666666666666668
-450.0   30.0   16.666666666666668
-500.0   60.0   16.666666666666668
-500.0   30.0   33.333333333333336
-450.0   30.0   16.666666666666668
-450.0   60.0   16.666666666666668
-500.0   60.0   16.666666666666668
-450.0   60.0   33.333333333333336
-500.0   30.0   33.333333333333336
-500.0   60.0   33.333333333333336
-450.0   60.0   33.333333333333336
-500.0   60.0   16.666666666666668
-500.0   30.0   33.333333333333336
-450.0   60.0   33.333333333333336
-450.0   30.0   33.333333333333336
-450.0   30.0   16.666666666666668
-500.0   30.0   33.333333333333336
-450.0   60.0   33.333333333333336
-450.0   30.0   16.666666666666668
-500.0   60.0   16.666666666666668
-500.0   30.0   33.333333333333336
-450.0   30.0   33.333333333333336
-500.0   60.0   33.333333333333336
-500.0   30.0   50.0
-450.0   30.0   33.333333333333336
-450.0   60.0   33.333333333333336
-500.0   60.0   33.333333333333336
-450.0   60.0   50.0
-500.0   30.0   50.0
-500.0   60.0   50.0
-450.0   60.0   50.0
-500.0   60.0   33.333333333333336
-500.0   30.0   50.0
-450.0   60.0   50.0
-450.0   30.0   50.0
-450.0   30.0   33.333333333333336
-500.0   30.0   50.0
-450.0   60.0   50.0
-450.0   30.0   33.333333333333336
-500.0   60.0   33.333333333333336
-500.0   60.0   0.0
-450.0   60.0   0.0
-500.0   90.0   0.0
-500.0   60.0   16.666666666666668
-450.0   60.0   0.0
-450.0   90.0   0.0
-500.0   90.0   0.0
-450.0   90.0   16.666666666666668
-500.0   60.0   16.666666666666668
-500.0   90.0   16.666666666666668
-450.0   90.0   16.666666666666668
-500.0   90.0   0.0
-500.0   60.0   16.666666666666668
-450.0   90.0   16.666666666666668
-450.0   60.0   16.666666666666668
-450.0   60.0   0.0
-500.0   60.0   16.666666666666668
-450.0   90.0   16.666666666666668
-450.0   60.0   0.0
-500.0   90.0   0.0
-500.0   60.0   16.666666666666668
-450.0   60.0   16.666666666666668
-500.0   90.0   16.666666666666668
-500.0   60.0   33.333333333333336
-450.0   60.0   16.666666666666668
-450.0   90.0   16.666666666666668
-500.0   90.0   16.666666666666668
-450.0   90.0   33.333333333333336
-500.0   60.0   33.333333333333336
-500.0   90.0   33.333333333333336
-450.0   90.0   33.333333333333336
-500.0   90.0   16.666666666666668
-500.0   60.0   33.333333333333336
-450.0   90.0   33.333333333333336
-450.0   60.0   33.333333333333336
-450.0   60.0   16.666666666666668
-500.0   60.0   33.333333333333336
-450.0   90.0   33.333333333333336
-450.0   60.0   16.666666666666668
-500.0   90.0   16.666666666666668
-500.0   60.0   33.333333333333336
-450.0   60.0   33.333333333333336
-500.0   90.0   33.333333333333336
-500.0   60.0   50.0
-450.0   60.0   33.333333333333336
-450.0   90.0   33.333333333333336
-500.0   90.0   33.333333333333336
-450.0   90.0   50.0
-500.0   60.0   50.0
-500.0   90.0   50.0
-450.0   90.0   50.0
-500.0   90.0   33.333333333333336
-500.0   60.0   50.0
-450.0   90.0   50.0
-450.0   60.0   50.0
-450.0   60.0   33.333333333333336
-500.0   60.0   50.0
-450.0   90.0   50.0
-450.0   60.0   33.333333333333336
-500.0   90.0   33.333333333333336
-500.0   90.0   0.0
-450.0   90.0   0.0
-500.0   120.0   0.0
-500.0   90.0   16.666666666666668
-450.0   90.0   0.0
-450.0   120.0   0.0
-500.0   120.0   0.0
-450.0   120.0   16.666666666666668
-500.0   90.0   16.666666666666668
-500.0   120.0   16.666666666666668
-450.0   120.0   16.666666666666668
-500.0   120.0   0.0
-500.0   90.0   16.666666666666668
-450.0   120.0   16.666666666666668
-450.0   90.0   16.666666666666668
-450.0   90.0   0.0
-500.0   90.0   16.666666666666668
-450.0   120.0   16.666666666666668
-450.0   90.0   0.0
-500.0   120.0   0.0
-500.0   90.0   16.666666666666668
-450.0   90.0   16.666666666666668
-500.0   120.0   16.666666666666668
-500.0   90.0   33.333333333333336
-450.0   90.0   16.666666666666668
-450.0   120.0   16.666666666666668
-500.0   120.0   16.666666666666668
-450.0   120.0   33.333333333333336
-500.0   90.0   33.333333333333336
-500.0   120.0   33.333333333333336
-450.0   120.0   33.333333333333336
-500.0   120.0   16.666666666666668
-500.0   90.0   33.333333333333336
-450.0   120.0   33.333333333333336
-450.0   90.0   33.333333333333336
-450.0   90.0   16.666666666666668
-500.0   90.0   33.333333333333336
-450.0   120.0   33.333333333333336
-450.0   90.0   16.666666666666668
-500.0   120.0   16.666666666666668
-500.0   90.0   33.333333333333336
-450.0   90.0   33.333333333333336
-500.0   120.0   33.333333333333336
-500.0   90.0   50.0
-450.0   90.0   33.333333333333336
-450.0   120.0   33.333333333333336
-500.0   120.0   33.333333333333336
-450.0   120.0   50.0
-500.0   90.0   50.0
-500.0   120.0   50.0
-450.0   120.0   50.0
-500.0   120.0   33.333333333333336
-500.0   90.0   50.0
-450.0   120.0   50.0
-450.0   90.0   50.0
-450.0   90.0   33.333333333333336
-500.0   90.0   50.0
-450.0   120.0   50.0
-450.0   90.0   33.333333333333336
-500.0   120.0   33.333333333333336
-500.0   120.0   0.0
-450.0   120.0   0.0
-500.0   150.0   0.0
-500.0   120.0   16.666666666666668
-450.0   120.0   0.0
-450.0   150.0   0.0
-500.0   150.0   0.0
-450.0   150.0   16.666666666666668
-500.0   120.0   16.666666666666668
-500.0   150.0   16.666666666666668
-450.0   150.0   16.666666666666668
-500.0   150.0   0.0
-500.0   120.0   16.666666666666668
-450.0   150.0   16.666666666666668
-450.0   120.0   16.666666666666668
-450.0   120.0   0.0
-500.0   120.0   16.666666666666668
-450.0   150.0   16.666666666666668
-450.0   120.0   0.0
-500.0   150.0   0.0
-500.0   120.0   16.666666666666668
-450.0   120.0   16.666666666666668
-500.0   150.0   16.666666666666668
-500.0   120.0   33.333333333333336
-450.0   120.0   16.666666666666668
-450.0   150.0   16.666666666666668
-500.0   150.0   16.666666666666668
-450.0   150.0   33.333333333333336
-500.0   120.0   33.333333333333336
-500.0   150.0   33.333333333333336
-450.0   150.0   33.333333333333336
-500.0   150.0   16.666666666666668
-500.0   120.0   33.333333333333336
-450.0   150.0   33.333333333333336
-450.0   120.0   33.333333333333336
-450.0   120.0   16.666666666666668
-500.0   120.0   33.333333333333336
-450.0   150.0   33.333333333333336
-450.0   120.0   16.666666666666668
-500.0   150.0   16.666666666666668
-500.0   120.0   33.333333333333336
-450.0   120.0   33.333333333333336
-500.0   150.0   33.333333333333336
-500.0   120.0   50.0
-450.0   120.0   33.333333333333336
-450.0   150.0   33.333333333333336
-500.0   150.0   33.333333333333336
-450.0   150.0   50.0
-500.0   120.0   50.0
-500.0   150.0   50.0
-450.0   150.0   50.0
-500.0   150.0   33.333333333333336
-500.0   120.0   50.0
-450.0   150.0   50.0
-450.0   120.0   50.0
-450.0   120.0   33.333333333333336
-500.0   120.0   50.0
-450.0   150.0   50.0
-450.0   120.0   33.333333333333336
-500.0   150.0   33.333333333333336
-450.0   0.0   0.0
-400.0   0.0   0.0
-450.0   30.0   0.0
-450.0   0.0   16.666666666666668
-400.0   0.0   0.0
-400.0   30.0   0.0
-450.0   30.0   0.0
-400.0   30.0   16.666666666666668
-450.0   0.0   16.666666666666668
-450.0   30.0   16.666666666666668
-400.0   30.0   16.666666666666668
-450.0   30.0   0.0
-450.0   0.0   16.666666666666668
-400.0   30.0   16.666666666666668
-400.0   0.0   16.666666666666668
-400.0   0.0   0.0
-450.0   0.0   16.666666666666668
-400.0   30.0   16.666666666666668
-400.0   0.0   0.0
-450.0   30.0   0.0
-450.0   0.0   16.666666666666668
-400.0   0.0   16.666666666666668
-450.0   30.0   16.666666666666668
[...]
          <PointData>  
             <DataArray type="Float64" NumberOfComponents="3" Name="Strains" format="ascii">   
-0.00025083817552188666   0.0   -0.00016419242898767887
-0.00025083817552188666   0.0   -0.00016419242898767887
-0.00025083817552188666   0.0   -0.00016419242898767887
-0.00025083817552188666   0.0   -0.00016419242898767887
-0.00015965603400304283   2.784552888723677e-05   4.485124209402565e-06
-0.00015965603400304283   2.784552888723677e-05   4.485124209402565e-06
-0.00015965603400304283   2.784552888723677e-05   4.485124209402565e-06
-0.00015965603400304283   2.784552888723677e-05   4.485124209402565e-06
-0.00015652865216802322   0.0   -0.00015490821910645874
-0.00015652865216802322   0.0   -0.00015490821910645874
-0.00015652865216802322   0.0   -0.00015490821910645874
-0.00015652865216802322   0.0   -0.00015490821910645874
-0.00026255124108473304   3.338863344758749e-05   1.7629156861724907e-06
-0.00026255124108473304   3.338863344758749e-05   1.7629156861724907e-06
-0.00026255124108473304   3.338863344758749e-05   1.7629156861724907e-06
-0.00026255124108473304   3.338863344758749e-05   1.7629156861724907e-06
-0.00020368341384495458   7.736841567683428e-06   -8.095905458551574e-05
-0.00020368341384495458   7.736841567683428e-06   -8.095905458551574e-05
-0.00020368341384495458   7.736841567683428e-06   -8.095905458551574e-05
-0.00020368341384495458   7.736841567683428e-06   -8.095905458551574e-05
-0.00026255124108473353   0.0   -0.00017494139917501126
-0.00026255124108473353   0.0   -0.00017494139917501126
-0.00026255124108473353   0.0   -0.00017494139917501126
-0.00026255124108473353   0.0   -0.00017494139917501126
-0.00015652865216802322   3.338863344758754e-05   2.179609575472509e-05
-0.00015652865216802322   3.338863344758754e-05   2.179609575472509e-05
-0.00015652865216802322   3.338863344758754e-05   2.179609575472509e-05
-0.00015652865216802322   3.338863344758754e-05   2.179609575472509e-05
-0.0001570026363148518   0.0   -0.0001587085880539093
-0.0001570026363148518   0.0   -0.0001587085880539093
-0.0001570026363148518   0.0   -0.0001587085880539093
-0.0001570026363148518   0.0   -0.0001587085880539093
-0.00027079215332254065   3.576341856248997e-05   9.482555821412227e-06
-0.00027079215332254065   3.576341856248997e-05   9.482555821412227e-06
-0.00027079215332254065   3.576341856248997e-05   9.482555821412227e-06
-0.00027079215332254065   3.576341856248997e-05   9.482555821412227e-06
-0.00020977693869979227   1.3527342600918278e-05   -7.886782297289197e-05
-0.00020977693869979227   1.3527342600918278e-05   -7.886782297289197e-05
-0.00020977693869979227   1.3527342600918278e-05   -7.886782297289197e-05
-0.00020977693869979227   1.3527342600918278e-05   -7.886782297289197e-05
-0.00027079215332254114   0.0   -0.00018016663919140333
-0.00027079215332254114   0.0   -0.00018016663919140333
-0.00027079215332254114   0.0   -0.00018016663919140333
-0.00027079215332254114   0.0   -0.00018016663919140333
-0.0001570026363148518   3.576341856249002e-05   3.094060695890623e-05
-0.0001570026363148518   3.576341856249002e-05   3.094060695890623e-05
-0.0001570026363148518   3.576341856249002e-05   3.094060695890623e-05
-0.0001570026363148518   3.576341856249002e-05   3.094060695890623e-05
-0.00015695680029805746   0.0   -0.000159679999196862
-0.00015695680029805746   0.0   -0.000159679999196862
-0.00015695680029805746   0.0   -0.000159679999196862
-0.00015695680029805746   0.0   -0.000159679999196862
-0.0002885130505926208   4.0718537230149065e-05   3.514929562265477e-05
-0.0002885130505926208   4.0718537230149065e-05   3.514929562265477e-05
-0.0002885130505926208   4.0718537230149065e-05   3.514929562265477e-05
-0.0002885130505926208   4.0718537230149065e-05   3.514929562265477e-05
-0.00021387447681029892   1.7072199995451083e-05   -7.506052500706273e-05
-0.00021387447681029892   1.7072199995451083e-05   -7.506052500706273e-05
-0.00021387447681029892   1.7072199995451083e-05   -7.506052500706273e-05
-0.00021387447681029892   1.7072199995451083e-05   -7.506052500706273e-05
-0.0001596560340030431   0.0   -0.00014748511165533682
-0.0001596560340030431   0.0   -0.00014748511165533682
-0.0001596560340030431   0.0   -0.00014748511165533682
-0.0001596560340030431   0.0   -0.00014748511165533682
-7.267058456788922e-05   1.0223733362352603e-05   3.62487742066449e-06
-7.267058456788922e-05   1.0223733362352603e-05   3.62487742066449e-06
-7.267058456788922e-05   1.0223733362352603e-05   3.62487742066449e-06
-7.267058456788922e-05   1.0223733362352603e-05   3.62487742066449e-06
-6.992526038604306e-05   0.0   -0.00014618632063058558
-6.992526038604306e-05   0.0   -0.00014618632063058558
-6.992526038604306e-05   0.0   -0.00014618632063058558
-6.992526038604306e-05   0.0   -0.00014618632063058558
-0.00015652865216802322   1.453649745978861e-05   -1.0569232803158465e-05
-0.00015652865216802322   1.453649745978861e-05   -1.0569232803158465e-05
-0.00015652865216802322   1.453649745978861e-05   -1.0569232803158465e-05
-0.00015652865216802322   1.453649745978861e-05   -1.0569232803158465e-05
-0.00011479064719454289   1.082325853959349e-06   -7.206007146212762e-05
-0.00011479064719454289   1.082325853959349e-06   -7.206007146212762e-05
-0.00011479064719454289   1.082325853959349e-06   -7.206007146212762e-05
-0.00011479064719454289   1.082325853959349e-06   -7.206007146212762e-05
-0.00015652865216802308   0.0   -0.0001549082191064586
-0.00015652865216802308   0.0   -0.0001549082191064586
-0.00015652865216802308   0.0   -0.0001549082191064586
-0.00015652865216802308   0.0   -0.0001549082191064586
-6.992526038604306e-05   1.453649745978861e-05   -1.8473343272853228e-06
-6.992526038604306e-05   1.453649745978861e-05   -1.8473343272853228e-06
-6.992526038604306e-05   1.453649745978861e-05   -1.8473343272853228e-06
-6.992526038604306e-05   1.453649745978861e-05   -1.8473343272853228e-06
-6.839670564081341e-05   0.0   -0.00014802808383461273
-6.839670564081341e-05   0.0   -0.00014802808383461273
-6.839670564081341e-05   0.0   -0.00014802808383461273
-6.839670564081341e-05   0.0   -0.00014802808383461273
-0.0001570026363148518   1.7800840365494314e-05   -1.1032036930512046e-05
-0.0001570026363148518   1.7800840365494314e-05   -1.1032036930512046e-05
-0.0001570026363148518   1.7800840365494314e-05   -1.1032036930512046e-05
-0.0001570026363148518   1.7800840365494314e-05   -1.1032036930512046e-05
-0.00011246267890441808   5.733446059871691e-06   -7.802486269786063e-05
-0.00011246267890441808   5.733446059871691e-06   -7.802486269786063e-05
-0.00011246267890441808   5.733446059871691e-06   -7.802486269786063e-05
-0.00011246267890441808   5.733446059871691e-06   -7.802486269786063e-05
-0.0001570026363148518   0.0   -0.0001587085880539093
-0.0001570026363148518   0.0   -0.0001587085880539093
-0.0001570026363148518   0.0   -0.0001587085880539093
-0.0001570026363148518   0.0   -0.0001587085880539093
-6.839670564081341e-05   1.7800840365494314e-05   -3.515327112154417e-07
-6.839670564081341e-05   1.7800840365494314e-05   -3.515327112154417e-07
-6.839670564081341e-05   1.7800840365494314e-05   -3.515327112154417e-07
-6.839670564081341e-05   1.7800840365494314e-05   -3.515327112154417e-07
-6.701021317456051e-05   0.0   -0.00014725661788464282
-6.701021317456051e-05   0.0   -0.00014725661788464282
-6.701021317456051e-05   0.0   -0.00014725661788464282
-6.701021317456051e-05   0.0   -0.00014725661788464282
-0.00015695680029805705   2.0705635520364997e-05   -9.769020657700344e-06
-0.00015695680029805705   2.0705635520364997e-05   -9.769020657700344e-06
-0.00015695680029805705   2.0705635520364997e-05   -9.769020657700344e-06
-0.00015695680029805705   2.0705635520364997e-05   -9.769020657700344e-06
-0.00011200642474470612   9.543308474388624e-06   -7.798891701903331e-05
-0.00011200642474470612   9.543308474388624e-06   -7.798891701903331e-05
-0.00011200642474470612   9.543308474388624e-06   -7.798891701903331e-05
-0.00011200642474470612   9.543308474388624e-06   -7.798891701903331e-05
-7.267058456788934e-05   0.0   -0.00014135087163792524
-7.267058456788934e-05   0.0   -0.00014135087163792524
-7.267058456788934e-05   0.0   -0.00014135087163792524
-7.267058456788934e-05   0.0   -0.00014135087163792524
9.54213903159204e-06   -1.3014648624040974e-06   -5.1105445562319116e-06
9.54213903159204e-06   -1.3014648624040974e-06   -5.1105445562319116e-06
9.54213903159204e-06   -1.3014648624040974e-06   -5.1105445562319116e-06
9.54213903159204e-06   -1.3014648624040974e-06   -5.1105445562319116e-06
1.1279388201038586e-05   0.0   -0.0001446422503535721
1.1279388201038586e-05   0.0   -0.0001446422503535721
1.1279388201038586e-05   0.0   -0.0001446422503535721
1.1279388201038586e-05   0.0   -0.0001446422503535721
-6.992526038604306e-05   2.573450461688286e-06   -1.084523965211614e-05
-6.992526038604306e-05   2.573450461688286e-06   -1.084523965211614e-05
-6.992526038604306e-05   2.573450461688286e-06   -1.084523965211614e-05
-6.992526038604306e-05   2.573450461688286e-06   -1.084523965211614e-05
-3.069559818342531e-05   -2.7428155963728093e-06   -7.303825035497543e-05
-3.069559818342531e-05   -2.7428155963728093e-06   -7.303825035497543e-05
-3.069559818342531e-05   -2.7428155963728093e-06   -7.303825035497543e-05
-3.069559818342531e-05   -2.7428155963728093e-06   -7.303825035497543e-05
-6.992526038604306e-05   0.0   -0.00014618632063058558
-6.992526038604306e-05   0.0   -0.00014618632063058558
-6.992526038604306e-05   0.0   -0.00014618632063058558
-6.992526038604306e-05   0.0   -0.00014618632063058558
1.1279388201038606e-05   2.573450461688286e-06   -9.301169375103133e-06
1.1279388201038606e-05   2.573450461688286e-06   -9.301169375103133e-06
1.1279388201038606e-05   2.573450461688286e-06   -9.301169375103133e-06
1.1279388201038606e-05   2.573450461688286e-06   -9.301169375103133e-06
1.2646233666038398e-05   0.0   -0.00014443781708604837
1.2646233666038398e-05   0.0   -0.00014443781708604837
1.2646233666038398e-05   0.0   -0.00014443781708604837
1.2646233666038398e-05   0.0   -0.00014443781708604837
-6.839670564081329e-05   5.983777914273457e-06   -1.295651832319299e-05
-6.839670564081329e-05   5.983777914273457e-06   -1.295651832319299e-05
-6.839670564081329e-05   5.983777914273457e-06   -1.295651832319299e-05
-6.839670564081329e-05   5.983777914273457e-06   -1.295651832319299e-05
-2.8639513360002316e-05   1.4570862871141283e-06   -7.650249048158251e-05
-2.8639513360002316e-05   1.4570862871141283e-06   -7.650249048158251e-05
-2.8639513360002316e-05   1.4570862871141283e-06   -7.650249048158251e-05
-2.8639513360002316e-05   1.4570862871141283e-06   -7.650249048158251e-05
-6.839670564081341e-05   0.0   -0.00014802808383461273
-6.839670564081341e-05   0.0   -0.00014802808383461273
-6.839670564081341e-05   0.0   -0.00014802808383461273
-6.839670564081341e-05   0.0   -0.00014802808383461273
1.264623366603842e-05   5.983777914273484e-06   -9.366251574628938e-06
1.264623366603842e-05   5.983777914273484e-06   -9.366251574628938e-06
1.264623366603842e-05   5.983777914273484e-06   -9.366251574628938e-06
1.264623366603842e-05   5.983777914273484e-06   -9.366251574628938e-06
1.4496134496594454e-05   0.0   -0.00014129517309797977
1.4496134496594454e-05   0.0   -0.00014129517309797977
1.4496134496594454e-05   0.0   -0.00014129517309797977
1.4496134496594454e-05   0.0   -0.00014129517309797977
-6.701021317456044e-05   9.9357413111049e-06   -1.1412705099384565e-05
-6.701021317456044e-05   9.9357413111049e-06   -1.1412705099384565e-05
-6.701021317456044e-05   9.9357413111049e-06   -1.1412705099384565e-05
-6.701021317456044e-05   9.9357413111049e-06   -1.1412705099384565e-05
-2.6950285572109418e-05   5.6107589471939045e-06   -7.558426168512294e-05
-2.6950285572109418e-05   5.6107589471939045e-06   -7.558426168512294e-05
-2.6950285572109418e-05   5.6107589471939045e-06   -7.558426168512294e-05
-2.6950285572109418e-05   5.6107589471939045e-06   -7.558426168512294e-05
9.542139031592057e-06   0.0   -0.00014213175055536768
9.542139031592057e-06   0.0   -0.00014213175055536768
9.542139031592057e-06   0.0   -0.00014213175055536768
9.542139031592057e-06   0.0   -0.00014213175055536768
9.875511752383779e-05   -1.1582795109894915e-05   -3.931301342282982e-07
9.875511752383779e-05   -1.1582795109894915e-05   -3.931301342282982e-07
9.875511752383779e-05   -1.1582795109894915e-05   -3.931301342282982e-07
9.875511752383779e-05   -1.1582795109894915e-05   -3.931301342282982e-07
9.888832796904097e-05   0.0   -0.00014988689139946833
9.888832796904097e-05   0.0   -0.00014988689139946833
9.888832796904097e-05   0.0   -0.00014988689139946833
9.888832796904097e-05   0.0   -0.00014988689139946833
1.1279388201038625e-05   -8.741068409826188e-06   1.3726492597645966e-06
1.1279388201038625e-05   -8.741068409826188e-06   1.3726492597645966e-06
1.1279388201038625e-05   -8.741068409826188e-06   1.3726492597645966e-06
1.1279388201038625e-05   -8.741068409826188e-06   1.3726492597645966e-06
5.4215233500316516e-05   -6.462617370083868e-06   -7.155416352954386e-05
5.4215233500316516e-05   -6.462617370083868e-06   -7.155416352954386e-05
5.4215233500316516e-05   -6.462617370083868e-06   -7.155416352954386e-05
5.4215233500316516e-05   -6.462617370083868e-06   -7.155416352954386e-05
1.1279388201038625e-05   0.0   -0.00014464225035357262
1.1279388201038625e-05   0.0   -0.00014464225035357262
1.1279388201038625e-05   0.0   -0.00014464225035357262
1.1279388201038625e-05   0.0   -0.00014464225035357262
9.888832796904097e-05   -8.741068409826188e-06   -3.871991786131104e-06
9.888832796904097e-05   -8.741068409826188e-06   -3.871991786131104e-06
9.888832796904097e-05   -8.741068409826188e-06   -3.871991786131104e-06
9.888832796904097e-05   -8.741068409826188e-06   -3.871991786131104e-06
9.842827031917401e-05   0.0   -0.00014774625947494555
9.842827031917401e-05   0.0   -0.00014774625947494555
9.842827031917401e-05   0.0   -0.00014774625947494555
9.842827031917401e-05   0.0   -0.00014774625947494555
1.264623366603842e-05   -5.5140706481615306e-06   -1.467755997489353e-06
1.264623366603842e-05   -5.5140706481615306e-06   -1.467755997489353e-06
1.264623366603842e-05   -5.5140706481615306e-06   -1.467755997489353e-06
1.264623366603842e-05   -5.5140706481615306e-06   -1.467755997489353e-06
5.485382926010632e-05   -2.5866742678107936e-06   -7.357018648247955e-05
5.485382926010632e-05   -2.5866742678107936e-06   -7.357018648247955e-05
5.485382926010632e-05   -2.5866742678107936e-06   -7.357018648247955e-05
5.485382926010632e-05   -2.5866742678107936e-06   -7.357018648247955e-05
1.264623366603841e-05   0.0   -0.0001444378170860485
1.264623366603841e-05   0.0   -0.0001444378170860485
1.264623366603841e-05   0.0   -0.0001444378170860485
1.264623366603841e-05   0.0   -0.0001444378170860485
9.842827031917401e-05   -5.5140706481615306e-06   -4.776198386386267e-06
9.842827031917401e-05   -5.5140706481615306e-06   -4.776198386386267e-06
9.842827031917401e-05   -5.5140706481615306e-06   -4.776198386386267e-06
9.842827031917401e-05   -5.5140706481615306e-06   -4.776198386386267e-06
0.00010029942610712191   0.0   -0.0001420004610404089
0.00010029942610712191   0.0   -0.0001420004610404089
0.00010029942610712191   0.0   -0.0001420004610404089
0.00010029942610712191   0.0   -0.0001420004610404089
1.449613449659448e-05   -1.1754799040481563e-06   1.7103129195656854e-06
1.449613449659448e-05   -1.1754799040481563e-06   1.7103129195656854e-06
1.449613449659448e-05   -1.1754799040481563e-06   1.7103129195656854e-06
1.449613449659448e-05   -1.1754799040481563e-06   1.7103129195656854e-06
5.647282988658012e-05   2.0311300380330976e-06   -7.017481202899242e-05
5.647282988658012e-05   2.0311300380330976e-06   -7.017481202899242e-05
5.647282988658012e-05   2.0311300380330976e-06   -7.017481202899242e-05
5.647282988658012e-05   2.0311300380330976e-06   -7.017481202899242e-05
9.875511752383779e-05   0.0   -0.00014908142762130462
9.875511752383779e-05   0.0   -0.00014908142762130462
9.875511752383779e-05   0.0   -0.00014908142762130462
9.875511752383779e-05   0.0   -0.00014908142762130462
0.00022272963278030975   -2.9333812896315133e-05   3.994247673502749e-05
0.00022272963278030975   -2.9333812896315133e-05   3.994247673502749e-05
0.00022272963278030975   -2.9333812896315133e-05   3.994247673502749e-05
0.00022272963278030975   -2.9333812896315133e-05   3.994247673502749e-05
0.0002091240038397244   0.0   -0.00016487537003929357
0.0002091240038397244   0.0   -0.00016487537003929357
0.0002091240038397244   0.0   -0.00016487537003929357
0.0002091240038397244   0.0   -0.00016487537003929357
9.888832796904097e-05   -2.4980797733042026e-05   3.38392350516707e-05
9.888832796904097e-05   -2.4980797733042026e-05   3.38392350516707e-05
9.888832796904097e-05   -2.4980797733042026e-05   3.38392350516707e-05
9.888832796904097e-05   -2.4980797733042026e-05   3.38392350516707e-05
0.00015393956068178108   -1.316161868165745e-05   -6.500432690039353e-05
0.00015393956068178108   -1.316161868165745e-05   -6.500432690039353e-05
0.00015393956068178108   -1.316161868165745e-05   -6.500432690039353e-05
0.00015393956068178108   -1.316161868165745e-05   -6.500432690039353e-05
9.888832796904089e-05   0.0   -0.00014988689139946822
9.888832796904089e-05   0.0   -0.00014988689139946822
9.888832796904089e-05   0.0   -0.00014988689139946822
9.888832796904089e-05   0.0   -0.00014988689139946822
0.00020912400383972366   -2.4980797733041972e-05   1.8850756411845375e-05
0.00020912400383972366   -2.4980797733041972e-05   1.8850756411845375e-05
0.00020912400383972366   -2.4980797733041972e-05   1.8850756411845375e-05
0.00020912400383972366   -2.4980797733041972e-05   1.8850756411845375e-05
0.00020283340260594622   0.0   -0.00016144712038842815
0.00020283340260594622   0.0   -0.00016144712038842815
0.00020283340260594622   0.0   -0.00016144712038842815
0.00020283340260594622   0.0   -0.00016144712038842815
9.842827031917401e-05   -2.2834768189137686e-05   2.6262294336341446e-05
9.842827031917401e-05   -2.2834768189137686e-05   2.6262294336341446e-05
9.842827031917401e-05   -2.2834768189137686e-05   2.6262294336341446e-05
9.842827031917401e-05   -2.2834768189137686e-05   2.6262294336341446e-05
0.00015086086528749351   -9.63352415746653e-06   -6.904611036319374e-05
0.00015086086528749351   -9.63352415746653e-06   -6.904611036319374e-05
0.00015086086528749351   -9.63352415746653e-06   -6.904611036319374e-05
0.00015086086528749351   -9.63352415746653e-06   -6.904611036319374e-05
9.842827031917401e-05   0.0   -0.00014774625947494555
9.842827031917401e-05   0.0   -0.00014774625947494555
9.842827031917401e-05   0.0   -0.00014774625947494555
9.842827031917401e-05   0.0   -0.00014774625947494555
0.00020283340260594552   -2.2834768189137578e-05   1.2561433422858764e-05
0.00020283340260594552   -2.2834768189137578e-05   1.2561433422858764e-05
0.00020283340260594552   -2.2834768189137578e-05   1.2561433422858764e-05
0.00020283340260594552   -2.2834768189137578e-05   1.2561433422858764e-05
0.00019349400149258026   0.0   -0.0001526648911697669
0.00019349400149258026   0.0   -0.0001526648911697669
0.00019349400149258026   0.0   -0.0001526648911697669
0.00019349400149258026   0.0   -0.0001526648911697669
0.00010029942610712191   -1.7774050215597085e-05   1.3323831268688874e-05
0.00010029942610712191   -1.7774050215597085e-05   1.3323831268688874e-05
0.00010029942610712191   -1.7774050215597085e-05   1.3323831268688874e-05
0.00010029942610712191   -1.7774050215597085e-05   1.3323831268688874e-05
0.0001459611359058773   -4.098859745684652e-06   -7.098413267785083e-05
0.0001459611359058773   -4.098859745684652e-06   -7.098413267785083e-05
0.0001459611359058773   -4.098859745684652e-06   -7.098413267785083e-05
0.0001459611359058773   -4.098859745684652e-06   -7.098413267785083e-05
-0.00021795840015850245   2.784552888723666e-05   -0.00014272083000447952
-0.00021795840015850245   2.784552888723666e-05   -0.00014272083000447952
-0.00021795840015850245   2.784552888723666e-05   -0.00014272083000447952