<?xml version="1.0"?> 
<VTKFile type="UnstructuredGrid"> 
   <UnstructuredGrid> 
      <Piece NumberOfPoints="6000"  NumberOfCells="1500">  
          <Points>  
             <DataArray type="Float64" NumberOfComponents="3" format="ascii">   
-500.0   0.0   0.0
-450.0   0.0   0.0
-500.0   30.0   0.0
-500.0   0.0   16.666666666666668
-450.0   0.0   0.0
-450.0   30.0   0.0
-500.0   30.0   0.0
-450.0   30.0   16.666666666666668
-500.0   0.0   16.666666666666668
-500.0   30.0   16.666666666666668
-450.0   30.0   16.666666666666668
-500.0   30.0   0.0
-500.0   0.0   16.666666666666668
-450.0   30.0   16.666666666666668
-450.0   0.0   16.666666666666668
-450.0   0.0   0.0
-500.0   0.0   16.666666666666668
-450.0   30.0   16.666666666666668
-450.0   0.0   0.0
-500.0   30.0   0.0
-500.0   0.0   16.666666666666668
-450.0   0.0   16.666666666666668
-500.0   30.0   16.666666666666668
-500.0   0.0   33.333333333333336
-450.0   0.0   16.666666666666668
-450.0   30.0   16.666666666666668
-500.0   30.0   16.666666666666668
-450.0   30.0   33.333333333333336
-500.0   0.0   33.333333333333336
-500.0   30.0   33.333333333333336
-450.0   30.0   33.333333333333336
-500.0   30.0   16.666666666666668
-500.0   0.0   33.333333333333336
-450.0   30.0   33.333333333333336
-450.0   0.0   33.333333333333336
-450.0   0.0   16.666666666666668
-500.0   0.0   33.333333333333336
-450.0   30.0   33.333333333333336
-450.0   0.0   16.666666666666668
-500.0   30.0   16.666666666666668
-500.0   0.0   33.333333333333336
-450.0   0.0   33.333333333333336
-500.0   30.0   33.333333333333336
-500.0   0.0   50.0
-450.0   0.0   33.333333333333336
-450.0   30.0   33.333333333333336
-500.0   30.0   33.333333333333336
-450.0   30.0   50.0
-500.0   0.0   50.0
-500.0   30.0   50.0
-450.0   30.0   50.0
-500.0   30.0   33.333333333333336
-500.0   0.0   50.0
-450.0   30.0   50.0
-450.0   0.0   50.0
-450.0   0.0   33.333333333333336
-500.0   0.0   50.0
-450.0   30.0   50.0
-450.0   0.0   33.333333333333336
-500.0   30.0   33.333333333333336
-500.0   30.0   0.0
-450.0   30.0   0.0
-500.0   60.0   0.0
-500.0   30.0   16.666666666666668
-450.0   30.0   0.0
-450.0   60.0   0.0
-500.0   60.0   0.0
-450.0   60.0   16.666666666666668
-500.0   30.0   16.666666666666668
-500.0   60.0   16.666666666666668
-450.0   60.0   16.666666666666668
-500.0   60.0   0.0
-500.0   30.0   16.666666666666668
-450.0   60.0   16.666666666666668
-450.0   30.0   16.666666666666668
-450.0   30.0   0.0
-500.0   30.0   16.666666666666668
-450.0   60.0   16.666666666666668
-450.0   30.0   0.0
-500.0   60.0   0.0
-500.0   30.0   16.666666666666668
-450.0   30.0   16.666666666666668
-500.0   60.0   16.666666666666668
-500.0   30.0   33.333333333333336
-450.0   30.0   16.666666666666668
-450.0   60.0   16.666666666666668
-500.0   60.0   16.666666666666668
-450.0   60.0   33.333333333333336
-500.0   30.0   33.333333333333336
-500.0   60.0   33.333333333333336
-450.0   60.0   33.333333333333336
-500.0   60.0   16.666666666666668
-500.0   30.0   33.333333333333336
-450.0   60.0   33.333333333333336
-450.0   30.0   33.333333333333336
-450.0   30.0   16.666666666666668
-500.0   30.0   33.333333333333336
-450.0   60.0   33.333333333333336
-450.0   30.0   16.666666666666668
-500.0   60.0   16.666666666666668
-500.0   30.0   33.333333333333336
-450.0   30.0   33.333333333333336
-500.0   60.0   33.333333333333336
-500.0   30.0   50.0
-450.0   30.0   33.333333333333336
-450.0   60.0   33.333333333333336
-500.0   60.0   33.333333333333336
-450.0   60.0   50.0
-500.0   30.0   50.0
-500.0   60.0   50.0
-450.0   60.0   50.0
-500.0   60.0   33.333333333333336
-500.0   30.0   50.0
-450.0   60.0   50.0
-450.0   30.0   50.0
-450.0   30.0   33.333333333333336
-500.0   30.0   50.0
-450.0   60.0   50.0
-450.0   30.0   33.333333333333336
-500.0   60.0   33.333333333333336
-500.0   60.0   0.0
-450.0   60.0   0.0
-500.0   90.0   0.0
-500.0   60.0   16.666666666666668
-450.0   60.0   0.0
-450.0   90.0   0.0
-500.0   90.0   0.0
-450.0   90.0   16.666666666666668
-500.0   60.0   16.666666666666668
-500.0   90.0   16.666666666666668
-450.0   90.0   16.666666666666668
-500.0   90.0   0.0
-500.0   60.0   16.666666666666668
-450.0   90.0   16.666666666666668
-450.0   60.0   16.666666666666668
-450.0   60.0   0.0
-500.0   60.0   16.666666666666668
-450.0   90.0   16.666666666666668
-450.0   60.0   0.0
-500.0   90.0   0.0
-500.0   60.0   16.666666666666668
-450.0   60.0   16.666666666666668
-500.0   90.0   16.666666666666668
-500.0   60.0   33.333333333333336
-450.0   60.0   16.666666666666668
-450.0   90.0   16.666666666666668
-500.0   90.0   16.666666666666668
-450.0   90.0   33.333333333333336
-500.0   60.0   33.333333333333336
-500.0   90.0   33.333333333333336
-450.0   90.0   33.333333333333336
-500.0   90.0   16.666666666666668
-500.0   60.0   33.333333333333336
-450.0   90.0   33.333333333333336
-450.0   60.0   33.333333333333336
-450.0   60.0   16.666666666666668
-500.0   60.0   33.333333333333336
-450.0   90.0   33.333333333333336
-450.0   60.0   16.666666666666668
-500.0   90.0   16.666666666666668
-500.0   60.0   33.333333333333336
-450.0   60.0   33.333333333333336
-500.0   90.0   33.333333333333336
-500.0   60.0   50.0
-450.0   60.0   33.333333333333336
-450.0   90.0   33.333333333333336
-500.0   90.0   33.333333333333336
-450.0   90.0   50.0
-500.0   60.0   50.0
-500.0   90.0   50.0
-450.0   90.0   50.0
-500.0   90.0   33.333333333333336
-500.0   60.0   50.0
-450.0   90.0   50.0
-450.0   60.0   50.0
-450.0   60.0   33.333333333333336
-500.0   60.0   50.0
-450.0   90.0   50.0
-450.0   60.0   33.333333333333336
-500.0   90.0   33.333333333333336
-500.0   90.0   0.0
-450.0   90.0   0.0
-500.0   120.0   0.0
-500.0   90.0   16.666666666666668
-450.0   90.0   0.0
-450.0   120.0   0.0
-500.0   120.0   0.0
-450.0   120.0   16.666666666666668
-500.0   90.0   16.666666666666668
-500.0   120.0   16.666666666666668
-450.0   120.0   16.666666666666668
-500.0   120.0   0.0
-500.0   90.0   16.666666666666668
-450.0   120.0   16.666666666666668
-450.0   90.0   16.666666666666668
-450.0   90.0   0.0
-500.0   90.0   16.666666666666668
-450.0   120.0   16.666666666666668
-450.0   90.0   0.0
-500.0   120.0   0.0
-500.0   90.0   16.666666666666668
-450.0   90.0   16.666666666666668
-500.0   120.0   16.666666666666668
-500.0   90.0   33.333333333333336
-450.0   90.0   16.666666666666668
-450.0   120.0   16.666666666666668
-500.0   120.0   16.666666666666668
-450.0   120.0   33.333333333333336
-500.0   90.0   33.333333333333336
-500.0   120.0   33.333333333333336
-450.0   120.0   33.333333333333336
-500.0   120.0   16.666666666666668
-500.0   90.0   33.333333333333336
-450.0   120.0   33.333333333333336
-450.0   90.0   33.333333333333336
-450.0   90.0   16.666666666666668
-500.0   90.0   33.333333333333336
-450.0   120.0   33.333333333333336
-450.0   90.0   16.666666666666668
-500.0   120.0   16.666666666666668
-500.0   90.0   33.333333333333336
-450.0   90.0   33.333333333333336
-500.0   120.0   33.333333333333336
-500.0   90.0   50.0
-450.0   90.0   33.333333333333336
-450.0   120.0   33.333333333333336
-500.0   120.0   33.333333333333336
-450.0   120.0   50.0
-500.0   90.0   50.0
-500.0   120.0   50.0
-450.0   120.0   50.0
-500.0   120.0   33.333333333333336
-500.0   90.0   50.0
-450.0   120.0   50.0
-450.0   90.0   50.0
-450.0   90.0   33.333333333333336
-500.0   90.0   50.0
-450.0   120.0   50.0
-450.0   90.0   33.333333333333336
-500.0   120.0   33.333333333333336
-500.0   120.0   0.0
-450.0   120.0   0.0
-500.0   150.0   0.0
-500.0   120.0   16.666666666666668
-450.0   120.0   0.0
-450.0   150.0   0.0
-500.0   150.0   0.0
-450.0   150.0   16.666666666666668
-500.0   120.0   16.666666666666668
-500.0   150.0   16.666666666666668
-450.0   150.0   16.666666666666668
-500.0   150.0   0.0
-500.0   120.0   16.666666666666668
-450.0   150.0   16.666666666666668
-450.0   120.0   16.666666666666668
-450.0   120.0   0.0
-500.0   120.0   16.666666666666668
-450.0   150.0   16.666666666666668
-450.0   120.0   0.0
-500.0   150.0   0.0
-500.0   120.0   16.666666666666668
-450.0   120.0   16.666666666666668
-500.0   150.0   16.666666666666668
-500.0   120.0   33.333333333333336
-450.0   120.0   16.666666666666668
-450.0   150.0   16.666666666666668
-500.0   150.0   16.666666666666668
-450.0   150.0   33.333333333333336
-500.0   120.0   33.333333333333336
-500.0   150.0   33.333333333333336
-450.0   150.0   33.333333333333336
-500.0   150.0   16.666666666666668
-500.0   120.0   33.333333333333336
-450.0   150.0   33.333333333333336
-450.0   120.0   33.333333333333336
-450.0   120.0   16.666666666666668
-500.0   120.0   33.333333333333336
-450.0   150.0   33.333333333333336
-450.0   120.0   16.666666666666668
-500.0   150.0   16.666666666666668
-500.0   120.0   33.333333333333336
-450.0   120.0   33.333333333333336
-500.0   150.0   33.333333333333336
-500.0   120.0   50.0
-450.0   120.0   33.333333333333336
-450.0   150.0   33.333333333333336
-500.0   150.0   33.333333333333336
-450.0   150.0   50.0
-500.0   120.0   50.0
-500.0   150.0   50.0
-450.0   150.0   50.0
-500.0   150.0   33.333333333333336
-500.0   120.0   50.0
-450.0   150.0   50.0
-450.0   120.0   50.0
-450.0   120.0   33.333333333333336
-500.0   120.0   50.0
-450.0   150.0   50.0
-450.0   120.0   33.333333333333336
-500.0   150.0   33.333333333333336
-450.0   0.0   0.0
-400.0   0.0   0.0
-450.0   30.0   0.0
-450.0   0.0   16.666666666666668
-400.0   0.0   0.0
-400.0   30.0   0.0
-450.0   30.0   0.0
-400.0   30.0   16.666666666666668
-450.0   0.0   16.666666666666668
-450.0   30.0   16.666666666666668
-400.0   30.0   16.666666666666668
-450.0   30.0   0.0
-450.0   0.0   16.666666666666668
-400.0   30.0   16.666666666666668
-400.0   0.0   16.666666666666668
-400.0   0.0   0.0
-450.0   0.0   16.666666666666668
-400.0   30.0   16.666666666666668
-400.0   0.0   0.0
-450.0   30.0   0.0
-450.0   0.0   16.666666666666668
-400.0   0.0   16.666666666666668
-450.0   30.0   16.666666666666668
[...]
          <PointData>  
             <DataArray type="Float64" NumberOfComponents="3" Name="Strains" format="ascii">   
-0.000563767921193166   0.0   -0.00036870167682272843
-0.000563767921193166   0.0   -0.00036870167682272843
-0.000563767921193166   0.0   -0.00036870167682272843
-0.000563767921193166   0.0   -0.00036870167682272843
-0.0003588650669587132   6.262719887295521e-05   1.037939955846512e-05
-0.0003588650669587132   6.262719887295521e-05   1.037939955846512e-05
-0.0003588650669587132   6.262719887295521e-05   1.037939955846512e-05
-0.0003588650669587132   6.262719887295521e-05   1.037939955846512e-05
-0.00035185788652747184   0.0   -0.00034781040373975885
-0.00035185788652747184   0.0   -0.00034781040373975885
-0.00035185788652747184   0.0   -0.00034781040373975885
-0.00035185788652747184   0.0   -0.00034781040373975885
-0.0005901211164790437   7.507351436074751e-05   4.250870896414143e-06
-0.0005901211164790437   7.507351436074751e-05   4.250870896414143e-06
-0.0005901211164790437   7.507351436074751e-05   4.250870896414143e-06
-0.0005901211164790437   7.507351436074751e-05   4.250870896414143e-06
-0.0004578129038603181   1.740939423580792e-05   -0.0001816643447264981
-0.0004578129038603181   1.740939423580792e-05   -0.0001816643447264981
-0.0004578129038603181   1.740939423580792e-05   -0.0001816643447264981
-0.0004578129038603181   1.740939423580792e-05   -0.0001816643447264981
-0.0005901211164790448   0.0   -0.0003928545123562074
-0.0005901211164790448   0.0   -0.0003928545123562074
-0.0005901211164790448   0.0   -0.0003928545123562074
-0.0005901211164790448   0.0   -0.0003928545123562074
-0.00035185788652747184   7.507351436074762e-05   4.9294979512862496e-05
-0.00035185788652747184   7.507351436074762e-05   4.9294979512862496e-05
-0.00035185788652747184   7.507351436074762e-05   4.9294979512862496e-05
-0.00035185788652747184   7.507351436074762e-05   4.9294979512862496e-05
-0.0003529475175696467   0.0   -0.0003563497777079254
-0.0003529475175696467   0.0   -0.0003563497777079254
-0.0003529475175696467   0.0   -0.0003563497777079254
-0.0003529475175696467   0.0   -0.0003563497777079254
-0.0006086733893699571   8.04075318194175e-05   2.1615489534276182e-05
-0.0006086733893699571   8.04075318194175e-05   2.1615489534276182e-05
-0.0006086733893699571   8.04075318194175e-05   2.1615489534276182e-05
-0.0006086733893699571   8.04075318194175e-05   2.1615489534276182e-05
-0.00047153431702434494   3.0420612206901625e-05   -0.00017695747927423423
-0.00047153431702434494   3.0420612206901625e-05   -0.00017695747927423423
-0.00047153431702434494   3.0420612206901625e-05   -0.00017695747927423423
-0.00047153431702434494   3.0420612206901625e-05   -0.00017695747927423423
-0.000608673389369958   0.0   -0.00040459429679957595
-0.000608673389369958   0.0   -0.00040459429679957595
-0.000608673389369958   0.0   -0.00040459429679957595
-0.000608673389369958   0.0   -0.00040459429679957595
-0.0003529475175696467   8.040753181941761e-05   6.986000862592694e-05
-0.0003529475175696467   8.040753181941761e-05   6.986000862592694e-05
-0.0003529475175696467   8.040753181941761e-05   6.986000862592694e-05
-0.0003529475175696467   8.040753181941761e-05   6.986000862592694e-05
-0.000352871718133417   0.0   -0.00035852870839680627
-0.000352871718133417   0.0   -0.00035852870839680627
-0.000352871718133417   0.0   -0.00035852870839680627
-0.000352871718133417   0.0   -0.00035852870839680627
-0.0006485435072581338   9.153063530755595e-05   7.933922562652299e-05
-0.0006485435072581338   9.153063530755595e-05   7.933922562652299e-05
-0.0006485435072581338   9.153063530755595e-05   7.933922562652299e-05
-0.0006485435072581338   9.153063530755595e-05   7.933922562652299e-05
-0.00048077255375168673   3.838799033564137e-05   -0.0001683934432344064
-0.00048077255375168673   3.838799033564137e-05   -0.0001683934432344064
-0.00048077255375168673   3.838799033564137e-05   -0.0001683934432344064
-0.00048077255375168673   3.838799033564137e-05   -0.0001683934432344064
-0.00035886506695871384   0.0   -0.00033112535749895523
-0.00035886506695871384   0.0   -0.00033112535749895523
-0.00035886506695871384   0.0   -0.00033112535749895523
-0.00035886506695871384   0.0   -0.00033112535749895523
-0.0001633165375697708   2.300248133074766e-05   8.590346947731501e-06
-0.0001633165375697708   2.300248133074766e-05   8.590346947731501e-06
-0.0001633165375697708   2.300248133074766e-05   8.590346947731501e-06
-0.0001633165375697708   2.300248133074766e-05   8.590346947731501e-06
-0.00015717039645542653   0.0   -0.00032819545935957114
-0.00015717039645542653   0.0   -0.00032819545935957114
-0.00015717039645542653   0.0   -0.00032819545935957114
-0.00015717039645542653   0.0   -0.00032819545935957114
-0.00035185788652747184   3.269157396697947e-05   -2.333125361968344e-05
-0.00035185788652747184   3.269157396697947e-05   -2.333125361968344e-05
-0.00035185788652747184   3.269157396697947e-05   -2.333125361968344e-05
-0.00035185788652747184   3.269157396697947e-05   -2.333125361968344e-05
-0.00025801773170706975   2.4415817828200522e-06   -0.0001615815163431901
-0.00025801773170706975   2.4415817828200522e-06   -0.0001615815163431901
-0.00025801773170706975   2.4415817828200522e-06   -0.0001615815163431901
-0.00025801773170706975   2.4415817828200522e-06   -0.0001615815163431901
-0.00035185788652747157   0.0   -0.0003478104037397585
-0.00035185788652747157   0.0   -0.0003478104037397585
-0.00035185788652747157   0.0   -0.0003478104037397585
-0.00035185788652747157   0.0   -0.0003478104037397585
-0.00015717039645542653   3.269157396697947e-05   -3.7163092394956808e-06
-0.00015717039645542653   3.269157396697947e-05   -3.7163092394956808e-06
-0.00015717039645542653   3.269157396697947e-05   -3.7163092394956808e-06
-0.00015717039645542653   3.269157396697947e-05   -3.7163092394956808e-06
-0.0001537583202358451   0.0   -0.00033233532569772715
-0.0001537583202358451   0.0   -0.00033233532569772715
-0.0001537583202358451   0.0   -0.00033233532569772715
-0.0001537583202358451   0.0   -0.00033233532569772715
-0.0003529475175696467   4.002408668366366e-05   -2.4367782151589338e-05
-0.0003529475175696467   4.002408668366366e-05   -2.4367782151589338e-05
-0.0003529475175696467   4.002408668366366e-05   -2.4367782151589338e-05
-0.0003529475175696467   4.002408668366366e-05   -2.4367782151589338e-05
-0.000252808103381658   1.2895898368359756e-05   -0.00017498989280905348
-0.000252808103381658   1.2895898368359756e-05   -0.00017498989280905348
-0.000252808103381658   1.2895898368359756e-05   -0.00017498989280905348
-0.000252808103381658   1.2895898368359756e-05   -0.00017498989280905348
-0.0003529475175696467   0.0   -0.0003563497777079254
-0.0003529475175696467   0.0   -0.0003563497777079254
-0.0003529475175696467   0.0   -0.0003563497777079254
-0.0003529475175696467   0.0   -0.0003563497777079254
-0.0001537583202358451   4.002408668366366e-05   -3.5333014139114164e-07
-0.0001537583202358451   4.002408668366366e-05   -3.5333014139114164e-07
-0.0001537583202358451   4.002408668366366e-05   -3.5333014139114164e-07
-0.0001537583202358451   4.002408668366366e-05   -3.5333014139114164e-07
-0.00015066743586865215   0.0   -0.00033059894261523113
-0.00015066743586865215   0.0   -0.00033059894261523113
-0.00015066743586865215   0.0   -0.00033059894261523113
-0.00015066743586865215   0.0   -0.00033059894261523113
-0.00035287171813341606   4.654960963595804e-05   -2.152157128886478e-05
-0.00035287171813341606   4.654960963595804e-05   -2.152157128886478e-05
-0.00035287171813341606   4.654960963595804e-05   -2.152157128886478e-05
-0.00035287171813341606   4.654960963595804e-05   -2.152157128886478e-05
-0.00025180747671914934   2.1459029243911694e-05   -0.00017490762541074942
-0.00025180747671914934   2.1459029243911694e-05   -0.00017490762541074942
-0.00025180747671914934   2.1459029243911694e-05   -0.00017490762541074942
-0.00025180747671914934   2.1459029243911694e-05   -0.00017490762541074942
-0.0001633165375697711   0.0   -0.0003173238687005066
-0.0001633165375697711   0.0   -0.0003173238687005066
-0.0001633165375697711   0.0   -0.0003173238687005066
-0.0001633165375697711   0.0   -0.0003173238687005066
2.1523268860699892e-05   -2.921902102144525e-06   -1.1010665911008096e-05
2.1523268860699892e-05   -2.921902102144525e-06   -1.1010665911008096e-05
2.1523268860699892e-05   -2.921902102144525e-06   -1.1010665911008096e-05
2.1523268860699892e-05   -2.921902102144525e-06   -1.1010665911008096e-05
2.5401222913815556e-05   0.0   -0.0003247246077364835
2.5401222913815556e-05   0.0   -0.0003247246077364835
2.5401222913815556e-05   0.0   -0.0003247246077364835
2.5401222913815556e-05   0.0   -0.0003247246077364835
-0.00015717039645542653   5.784752705144196e-06   -2.3909427077500878e-05
-0.00015717039645542653   5.784752705144196e-06   -2.3909427077500878e-05
-0.00015717039645542653   5.784752705144196e-06   -2.3909427077500878e-05
-0.00015717039645542653   5.784752705144196e-06   -2.3909427077500878e-05
-6.895765732797761e-05   -6.16728252998168e-06   -0.00016375943781550626
-6.895765732797761e-05   -6.16728252998168e-06   -0.00016375943781550626
-6.895765732797761e-05   -6.16728252998168e-06   -0.00016375943781550626
-6.895765732797761e-05   -6.16728252998168e-06   -0.00016375943781550626
-0.00015717039645542653   0.0   -0.00032819545935957114
-0.00015717039645542653   0.0   -0.00032819545935957114
-0.00015717039645542653   0.0   -0.00032819545935957114
-0.00015717039645542653   0.0   -0.00032819545935957114
2.54012229138156e-05   5.784752705144088e-06   -2.043857545441428e-05
2.54012229138156e-05   5.784752705144088e-06   -2.043857545441428e-05
2.54012229138156e-05   5.784752705144088e-06   -2.043857545441428e-05
2.54012229138156e-05   5.784752705144088e-06   -2.043857545441428e-05
2.844908559898466e-05   0.0   -0.00032426751446408943
2.844908559898466e-05   0.0   -0.00032426751446408943
2.844908559898466e-05   0.0   -0.00032426751446408943
2.844908559898466e-05   0.0   -0.00032426751446408943
-0.00015375832023584483   1.3446352056061895e-05   -2.8656315973010836e-05
-0.00015375832023584483   1.3446352056061895e-05   -2.8656315973010836e-05
-0.00015375832023584483   1.3446352056061895e-05   -2.8656315973010836e-05
-0.00015375832023584483   1.3446352056061895e-05   -2.8656315973010836e-05
-6.436065542822091e-05   3.2732874129009137e-06   -0.0001715485851998211
-6.436065542822091e-05   3.2732874129009137e-06   -0.0001715485851998211
-6.436065542822091e-05   3.2732874129009137e-06   -0.0001715485851998211
-6.436065542822091e-05   3.2732874129009137e-06   -0.0001715485851998211
-0.0001537583202358451   0.0   -0.00033233532569772715
-0.0001537583202358451   0.0   -0.00033233532569772715
-0.0001537583202358451   0.0   -0.00033233532569772715
-0.0001537583202358451   0.0   -0.00033233532569772715
2.8449085598984706e-05   1.3446352056062003e-05   -2.0588504739373744e-05
2.8449085598984706e-05   1.3446352056062003e-05   -2.0588504739373744e-05
2.8449085598984706e-05   1.3446352056062003e-05   -2.0588504739373744e-05
2.8449085598984706e-05   1.3446352056062003e-05   -2.0588504739373744e-05
3.2582308538572344e-05   0.0   -0.0003172032084478792
3.2582308538572344e-05   0.0   -0.0003172032084478792
3.2582308538572344e-05   0.0   -0.0003172032084478792
3.2582308538572344e-05   0.0   -0.0003172032084478792
-0.00015066743586865204   2.232622361225266e-05   -2.5182701936523613e-05
-0.00015066743586865204   2.232622361225266e-05   -2.5182701936523613e-05
-0.00015066743586865204   2.232622361225266e-05   -2.5182701936523613e-05
-0.00015066743586865204   2.232622361225266e-05   -2.5182701936523613e-05
-6.058800584863624e-05   1.261009770820614e-05   -0.00016948540976078849
-6.058800584863624e-05   1.261009770820614e-05   -0.00016948540976078849
-6.058800584863624e-05   1.261009770820614e-05   -0.00016948540976078849
-6.058800584863624e-05   1.261009770820614e-05   -0.00016948540976078849
2.152326886069993e-05   0.0   -0.00031907700996179335
2.152326886069993e-05   0.0   -0.00031907700996179335
2.152326886069993e-05   0.0   -0.00031907700996179335
2.152326886069993e-05   0.0   -0.00031907700996179335
0.0002220812764089981   -2.6047352537757846e-05   -4.420755706175468e-07
0.0002220812764089981   -2.6047352537757846e-05   -4.420755706175468e-07
0.0002220812764089981   -2.6047352537757846e-05   -4.420755706175468e-07
0.0002220812764089981   -2.6047352537757846e-05   -4.420755706175468e-07
0.00022235051585568107   0.0   -0.0003365228225056746
0.00022235051585568107   0.0   -0.0003365228225056746
0.00022235051585568107   0.0   -0.0003365228225056746
0.00022235051585568107   0.0   -0.0003365228225056746
2.5401222913815644e-05   -1.966369128198332e-05   3.5242138332909878e-06
2.5401222913815644e-05   -1.966369128198332e-05   3.5242138332909878e-06
2.5401222913815644e-05   -1.966369128198332e-05   3.5242138332909878e-06
2.5401222913815644e-05   -1.966369128198332e-05   3.5242138332909878e-06
0.0001219368923581905   -1.4538177119901078e-05   -0.00016044387707124958
0.0001219368923581905   -1.4538177119901078e-05   -0.00016044387707124958
0.0001219368923581905   -1.4538177119901078e-05   -0.00016044387707124958
0.0001219368923581905   -1.4538177119901078e-05   -0.00016044387707124958
2.5401222913815644e-05   0.0   -0.00032472460773648465
2.5401222913815644e-05   0.0   -0.00032472460773648465
2.5401222913815644e-05   0.0   -0.00032472460773648465
2.5401222913815644e-05   0.0   -0.00032472460773648465
0.00022235051585568107   -1.966369128198332e-05   -8.274000935898937e-06
0.00022235051585568107   -1.966369128198332e-05   -8.274000935898937e-06
0.00022235051585568107   -1.966369128198332e-05   -8.274000935898937e-06
0.00022235051585568107   -1.966369128198332e-05   -8.274000935898937e-06
0.00022128993079840144   0.0   -0.00033171650342582335
0.00022128993079840144   0.0   -0.00033171650342582335
0.00022128993079840144   0.0   -0.00033171650342582335
0.00022128993079840144   0.0   -0.00033171650342582335
2.8449085598984706e-05   -1.2414981602888904e-05   -2.8661057983955327e-06
2.8449085598984706e-05   -1.2414981602888904e-05   -2.8661057983955327e-06
2.8449085598984706e-05   -1.2414981602888904e-05   -2.8661057983955327e-06
2.8449085598984706e-05   -1.2414981602888904e-05   -2.8661057983955327e-06
0.00012334557685610853   -5.826579741115582e-06   -0.0001649799656773324
0.00012334557685610853   -5.826579741115582e-06   -0.0001649799656773324
0.00012334557685610853   -5.826579741115582e-06   -0.0001649799656773324
0.00012334557685610853   -5.826579741115582e-06   -0.0001649799656773324
2.8449085598984682e-05   0.0   -0.0003242675144640897
2.8449085598984682e-05   0.0   -0.0003242675144640897
2.8449085598984682e-05   0.0   -0.0003242675144640897
2.8449085598984682e-05   0.0   -0.0003242675144640897
0.00022128993079840144   -1.2414981602888904e-05   -1.0315094760128833e-05
0.00022128993079840144   -1.2414981602888904e-05   -1.0315094760128833e-05
0.00022128993079840144   -1.2414981602888904e-05   -1.0315094760128833e-05
0.00022128993079840144   -1.2414981602888904e-05   -1.0315094760128833e-05
0.00022547159853414988   0.0   -0.0003188038496104303
0.00022547159853414988   0.0   -0.0003188038496104303
0.00022547159853414988   0.0   -0.0003188038496104303
0.00022547159853414988   0.0   -0.0003188038496104303
3.25823085385724e-05   -2.6677352709176443e-06   4.278941544749368e-06
3.25823085385724e-05   -2.6677352709176443e-06   4.278941544749368e-06
3.25823085385724e-05   -2.6677352709176443e-06   4.278941544749368e-06
3.25823085385724e-05   -2.6677352709176443e-06   4.278941544749368e-06
0.0001269603420665672   4.553054044716424e-06   -0.00015735025459128892
0.0001269603420665672   4.553054044716424e-06   -0.00015735025459128892
0.0001269603420665672   4.553054044716424e-06   -0.00015735025459128892
0.0001269603420665672   4.553054044716424e-06   -0.00015735025459128892
0.0002220812764089981   0.0   -0.000334705421484448
0.0002220812764089981   0.0   -0.000334705421484448
0.0002220812764089981   0.0   -0.000334705421484448
0.0002220812764089981   0.0   -0.000334705421484448
0.0005007157892869187   -6.594538320619289e-05   9.011820338837334e-05
0.0005007157892869187   -6.594538320619289e-05   9.011820338837334e-05
0.0005007157892869187   -6.594538320619289e-05   9.011820338837334e-05
0.0005007157892869187   -6.594538320619289e-05   9.011820338837334e-05
0.00047008970976216   0.0   -0.0003702280606661178
0.00047008970976216   0.0   -0.0003702280606661178
0.00047008970976216   0.0   -0.0003702280606661178
0.00047008970976216   0.0   -0.0003702280606661178
0.00022235051585568107   -5.617539693407198e-05   7.637583400512359e-05
0.00022235051585568107   -5.617539693407198e-05   7.637583400512359e-05
0.00022235051585568107   -5.617539693407198e-05   7.637583400512359e-05
0.00022235051585568107   -5.617539693407198e-05   7.637583400512359e-05
0.00034608549308557903   -2.96021993180582e-05   -0.0001457930466143145
0.00034608549308557903   -2.96021993180582e-05   -0.0001457930466143145
0.00034608549308557903   -2.96021993180582e-05   -0.0001457930466143145
0.00034608549308557903   -2.96021993180582e-05   -0.0001457930466143145
0.00022235051585568088   0.0   -0.0003365228225056743
0.00022235051585568088   0.0   -0.0003365228225056743
0.00022235051585568088   0.0   -0.0003365228225056743
0.00022235051585568088   0.0   -0.0003365228225056743
0.00047008970976215837   -5.617539693407187e-05   4.2670595844680206e-05
0.00047008970976215837   -5.617539693407187e-05   4.2670595844680206e-05
0.00047008970976215837   -5.617539693407187e-05   4.2670595844680206e-05
0.00047008970976215837   -5.617539693407187e-05   4.2670595844680206e-05
0.00045591788640506184   0.0   -0.00036252962959779745
0.00045591788640506184   0.0   -0.00036252962959779745
0.00045591788640506184   0.0   -0.00036252962959779745
0.00045591788640506184   0.0   -0.00036252962959779745
0.00022128993079840144   -5.135521028662351e-05   5.933008925194396e-05
0.00022128993079840144   -5.135521028662351e-05   5.933008925194396e-05
0.00022128993079840144   -5.135521028662351e-05   5.933008925194396e-05
0.00022128993079840144   -5.135521028662351e-05   5.933008925194396e-05
0.00033913420113037125   -2.167233924343573e-05   -0.00015488675059391837
0.00033913420113037125   -2.167233924343573e-05   -0.00015488675059391837
0.00033913420113037125   -2.167233924343573e-05   -0.00015488675059391837
0.00033913420113037125   -2.167233924343573e-05   -0.00015488675059391837
0.00022128993079840144   0.0   -0.00033171650342582335
0.00022128993079840144   0.0   -0.00033171650342582335
0.00022128993079840144   0.0   -0.00033171650342582335
0.00022128993079840144   0.0   -0.00033171650342582335
0.00045591788640506027   -5.135521028662329e-05   2.8516963079969638e-05
0.00045591788640506027   -5.135521028662329e-05   2.8516963079969638e-05
0.00045591788640506027   -5.135521028662329e-05   2.8516963079969638e-05
0.00045591788640506027   -5.135521028662329e-05   2.8516963079969638e-05
0.00043489571630714714   0.0   -0.00034279936024709303
0.00043489571630714714   0.0   -0.00034279936024709303
0.00043489571630714714   0.0   -0.00034279936024709303
0.00043489571630714714   0.0   -0.00034279936024709303
0.00022547159853414988   -3.99925177277722e-05   3.0236346677899712e-05
0.00022547159853414988   -3.99925177277722e-05   3.0236346677899712e-05
0.00022547159853414988   -3.99925177277722e-05   3.0236346677899712e-05
0.00022547159853414988   -3.99925177277722e-05   3.0236346677899712e-05
0.0003280928235527747   -9.235714017725278e-06   -0.0001592531105791697
0.0003280928235527747   -9.235714017725278e-06   -0.0001592531105791697
0.0003280928235527747   -9.235714017725278e-06   -0.0001592531105791697
0.0003280928235527747   -9.235714017725278e-06   -0.0001592531105791697
-0.0004901113460948955   6.26271988729551e-05   -0.00032071166177613953
-0.0004901113460948955   6.26271988729551e-05   -0.00032071166177613953
-0.0004901113460948955   6.26271988729551e-05   -0.00032071166177613953