<?xml version="1.0"?> 
<VTKFile type="UnstructuredGrid"> 
   <UnstructuredGrid> 
      <Piece NumberOfPoints="6000"  NumberOfCells="1500">  
          <Points>  
             <DataArray type="Float64" NumberOfComponents="3" format="ascii">   
-500.0   0.0   0.0
-450.0   0.0   0.0
-500.0   30.0   0.0
-500.0   0.0   16.666666666666668
-450.0   0.0   0.0
-450.0   30.0   0.0
-500.0   30.0   0.0
-450.0   30.0   16.666666666666668
-500.0   0.0   16.666666666666668
-500.0   30.0   16.666666666666668
-450.0   30.0   16.666666666666668
-500.0   30.0   0.0
-500.0   0.0   16.666666666666668
-450.0   30.0   16.666666666666668
-450.0   0.0   16.666666666666668
-450.0   0.0   0.0
-500.0   0.0   16.666666666666668
-450.0   30.0   16.666666666666668
-450.0   0.0   0.0
-500.0   30.0   0.0
-500.0   0.0   16.666666666666668
-450.0   0.0   16.666666666666668
-500.0   30.0   16.666666666666668
-500.0   0.0   33.333333333333336
-450.0   0.0   16.666666666666668
-450.0   30.0   16.666666666666668
-500.0   30.0   16.666666666666668
-450.0   30.0   33.333333333333336
-500.0   0.0   33.333333333333336
-500.0   30.0   33.333333333333336
-450.0   30.0   33.333333333333336
-500.0   30.0   16.666666666666668
-500.0   0.0   33.333333333333336
-450.0   30.0   33.333333333333336
-450.0   0.0   33.333333333333336
-450.0   0.0   16.666666666666668
-500.0   0.0   33.333333333333336
-450.0   30.0   33.333333333333336
-450.0   0.0   16.666666666666668
-500.0   30.0   16.666666666666668
-500.0   0.0   33.333333333333336
-450.0   0.0   33.333333333333336
-500.0   30.0   33.333333333333336
-500.0   0.0   50.0
-450.0   0.0   33.333333333333336
-450.0   30.0   33.333333333333336
-500.0   30.0   33.333333333333336
-450.0   30.0   50.0
-500.0   0.0   50.0
-500.0   30.0   50.0
-450.0   30.0   50.0
-500.0   30.0   33.333333333333336
-500.0   0.0   50.0
-450.0   30.0   50.0
-450.0   0.0   50.0
-450.0   0.0   33.333333333333336
-500.0   0.0   50.0
-450.0   30.0   50.0
-450.0   0.0   33.333333333333336
-500.0   30.0   33.333333333333336
-500.0   30.0   0.0
-450.0   30.0   0.0
-500.0   60.0   0.0
-500.0   30.0   16.666666666666668
-450.0   30.0   0.0
-450.0   60.0   0.0
-500.0   60.0   0.0
-450.0   60.0   16.666666666666668
-500.0   30.0   16.666666666666668
-500.0   60.0   16.666666666666668
-450.0   60.0   16.666666666666668
-500.0   60.0   0.0
-500.0   30.0   16.666666666666668
-450.0   60.0   16.666666666666668
-450.0   30.0   16.666666666666668
-450.0   30.0   0.0
-500.0   30.0   16.666666666666668
-450.0   60.0   16.666666666666668
-450.0   30.0   0.0
-500.0   60.0   0.0
-500.0   30.0   16.666666666666668
-450.0   30.0   16.666666666666668
-500.0   60.0   16.666666666666668
-500.0   30.0   33.333333333333336
-450.0   30.0   16.666666666666668
-450.0   60.0   16.666666666666668
-500.0   60.0   16.666666666666668
-450.0   60.0   33.333333333333336
-500.0   30.0   33.333333333333336
-500.0   60.0   33.333333333333336
-450.0   60.0   33.333333333333336
-500.0   60.0   16.666666666666668
-500.0   30.0   33.333333333333336
-450.0   60.0   33.333333333333336
-450.0   30.0   33.333333333333336
-450.0   30.0   16.666666666666668
-500.0   30.0   33.333333333333336
-450.0   60.0   33.333333333333336
-450.0   30.0   16.666666666666668
-500.0   60.0   16.666666666666668
-500.0   30.0   33.333333333333336
-450.0   30.0   33.333333333333336
-500.0   60.0   33.333333333333336
-500.0   30.0   50.0
-450.0   30.0   33.333333333333336
-450.0   60.0   33.333333333333336
-500.0   60.0   33.333333333333336
-450.0   60.0   50.0
-500.0   30.0   50.0
-500.0   60.0   50.0
-450.0   60.0   50.0
-500.0   60.0   33.333333333333336
-500.0   30.0   50.0
-450.0   60.0   50.0
-450.0   30.0   50.0
-450.0   30.0   33.333333333333336
-500.0   30.0   50.0
-450.0   60.0   50.0
-450.0   30.0   33.333333333333336
-500.0   60.0   33.333333333333336
-500.0   60.0   0.0
-450.0   60.0   0.0
-500.0   90.0   0.0
-500.0   60.0   16.666666666666668
-450.0   60.0   0.0
-450.0   90.0   0.0
-500.0   90.0   0.0
-450.0   90.0   16.666666666666668
-500.0   60.0   16.666666666666668
-500.0   90.0   16.666666666666668
-450.0   90.0   16.666666666666668
-500.0   90.0   0.0
-500.0   60.0   16.666666666666668
-450.0   90.0   16.666666666666668
-450.0   60.0   16.666666666666668
-450.0   60.0   0.0
-500.0   60.0   16.666666666666668
-450.0   90.0   16.666666666666668
-450.0   60.0   0.0
-500.0   90.0   0.0
-500.0   60.0   16.666666666666668
-450.0   60.0   16.666666666666668
-500.0   90.0   16.666666666666668
-500.0   60.0   33.333333333333336
-450.0   60.0   16.666666666666668
-450.0   90.0   16.666666666666668
-500.0   90.0   16.666666666666668
-450.0   90.0   33.333333333333336
-500.0   60.0   33.333333333333336
-500.0   90.0   33.333333333333336
-450.0   90.0   33.333333333333336
-500.0   90.0   16.666666666666668
-500.0   60.0   33.333333333333336
-450.0   90.0   33.333333333333336
-450.0   60.0   33.333333333333336
-450.0   60.0   16.666666666666668
-500.0   60.0   33.333333333333336
-450.0   90.0   33.333333333333336
-450.0   60.0   16.666666666666668
-500.0   90.0   16.666666666666668
-500.0   60.0   33.333333333333336
-450.0   60.0   33.333333333333336
-500.0   90.0   33.333333333333336
-500.0   60.0   50.0
-450.0   60.0   33.333333333333336
-450.0   90.0   33.333333333333336
-500.0   90.0   33.333333333333336
-450.0   90.0   50.0
-500.0   60.0   50.0
-500.0   90.0   50.0
-450.0   90.0   50.0
-500.0   90.0   33.333333333333336
-500.0   60.0   50.0
-450.0   90.0   50.0
-450.0   60.0   50.0
-450.0   60.0   33.333333333333336
-500.0   60.0   50.0
-450.0   90.0   50.0
-450.0   60.0   33.333333333333336
-500.0   90.0   33.333333333333336
-500.0   90.0   0.0
-450.0   90.0   0.0
-500.0   120.0   0.0
-500.0   90.0   16.666666666666668
-450.0   90.0   0.0
-450.0   120.0   0.0
-500.0   120.0   0.0
-450.0   120.0   16.666666666666668
-500.0   90.0   16.666666666666668
-500.0   120.0   16.666666666666668
-450.0   120.0   16.666666666666668
-500.0   120.0   0.0
-500.0   90.0   16.666666666666668
-450.0   120.0   16.666666666666668
-450.0   90.0   16.666666666666668
-450.0   90.0   0.0
-500.0   90.0   16.666666666666668
-450.0   120.0   16.666666666666668
-450.0   90.0   0.0
-500.0   120.0   0.0
-500.0   90.0   16.666666666666668
-450.0   90.0   16.666666666666668
-500.0   120.0   16.666666666666668
-500.0   90.0   33.333333333333336
-450.0   90.0   16.666666666666668
-450.0   120.0   16.666666666666668
-500.0   120.0   16.666666666666668
-450.0   120.0   33.333333333333336
-500.0   90.0   33.333333333333336
-500.0   120.0   33.333333333333336
-450.0   120.0   33.333333333333336
-500.0   120.0   16.666666666666668
-500.0   90.0   33.333333333333336
-450.0   120.0   33.333333333333336
-450.0   90.0   33.333333333333336
-450.0   90.0   16.666666666666668
-500.0   90.0   33.333333333333336
-450.0   120.0   33.333333333333336
-450.0   90.0   16.666666666666668
-500.0   120.0   16.666666666666668
-500.0   90.0   33.333333333333336
-450.0   90.0   33.333333333333336
-500.0   120.0   33.333333333333336
-500.0   90.0   50.0
-450.0   90.0   33.333333333333336
-450.0   120.0   33.333333333333336
-500.0   120.0   33.333333333333336
-450.0   120.0   50.0
-500.0   90.0   50.0
-500.0   120.0   50.0
-450.0   120.0   50.0
-500.0   120.0   33.333333333333336
-500.0   90.0   50.0
-450.0   120.0   50.0
-450.0   90.0   50.0
-450.0   90.0   33.333333333333336
-500.0   90.0   50.0
-450.0   120.0   50.0
-450.0   90.0   33.333333333333336
-500.0   120.0   33.333333333333336
-500.0   120.0   0.0
-450.0   120.0   0.0
-500.0   150.0   0.0
-500.0   120.0   16.666666666666668
-450.0   120.0   0.0
-450.0   150.0   0.0
-500.0   150.0   0.0
-450.0   150.0   16.666666666666668
-500.0   120.0   16.666666666666668
-500.0   150.0   16.666666666666668
-450.0   150.0   16.666666666666668
-500.0   150.0   0.0
-500.0   120.0   16.666666666666668
-450.0   150.0   16.666666666666668
-450.0   120.0   16.666666666666668
-450.0   120.0   0.0
-500.0   120.0   16.666666666666668
-450.0   150.0   16.666666666666668
-450.0   120.0   0.0
-500.0   150.0   0.0
-500.0   120.0   16.666666666666668
-450.0   120.0   16.666666666666668
-500.0   150.0   16.666666666666668
-500.0   120.0   33.333333333333336
-450.0   120.0   16.666666666666668
-450.0   150.0   16.666666666666668
-500.0   150.0   16.666666666666668
-450.0   150.0   33.333333333333336
-500.0   120.0   33.333333333333336
-500.0   150.0   33.333333333333336
-450.0   150.0   33.333333333333336
-500.0   150.0   16.666666666666668
-500.0   120.0   33.333333333333336
-450.0   150.0   33.333333333333336
-450.0   120.0   33.333333333333336
-450.0   120.0   16.666666666666668
-500.0   120.0   33.333333333333336
-450.0   150.0   33.333333333333336
-450.0   120.0   16.666666666666668
-500.0   150.0   16.666666666666668
-500.0   120.0   33.333333333333336
-450.0   120.0   33.333333333333336
-500.0   150.0   33.333333333333336
-500.0   120.0   50.0
-450.0   120.0   33.333333333333336
-450.0   150.0   33.333333333333336
-500.0   150.0   33.333333333333336
-450.0   150.0   50.0
-500.0   120.0   50.0
-500.0   150.0   50.0
-450.0   150.0   50.0
-500.0   150.0   33.333333333333336
-500.0   120.0   50.0
-450.0   150.0   50.0
-450.0   120.0   50.0
-450.0   120.0   33.333333333333336
-500.0   120.0   50.0
-450.0   150.0   50.0
-450.0   120.0   33.333333333333336
-500.0   150.0   33.333333333333336
-450.0   0.0   0.0
-400.0   0.0   0.0
-450.0   30.0   0.0
-450.0   0.0   16.666666666666668
-400.0   0.0   0.0
-400.0   30.0   0.0
-450.0   30.0   0.0
-400.0   30.0   16.666666666666668
-450.0   0.0   16.666666666666668
-450.0   30.0   16.666666666666668
-400.0   30.0   16.666666666666668
-450.0   30.0   0.0
-450.0   0.0   16.666666666666668
-400.0   30.0   16.666666666666668
-400.0   0.0   16.666666666666668
-400.0   0.0   0.0
-450.0   0.0   16.666666666666668
-400.0   30.0   16.666666666666668
-400.0   0.0   0.0
-450.0   30.0   0.0
-450.0   0.0   16.666666666666668
-400.0   0.0   16.666666666666668
-450.0   30.0   16.666666666666668
[...]
          <PointData>  
             <DataArray type="Float64" NumberOfComponents="3" Name="Strains" format="ascii">   
-0.0001882522263876347   0.0   -0.00012329057942067035
-0.0001882522263876347   0.0   -0.00012329057942067035
-0.0001882522263876347   0.0   -0.00012329057942067035
-0.0001882522263876347   0.0   -0.00012329057942067035
-0.00011981422741191279   2.0889194890093494e-05   3.306269139588693e-06
-0.00011981422741191279   2.0889194890093494e-05   3.306269139588693e-06
-0.00011981422741191279   2.0889194890093494e-05   3.306269139588693e-06
-0.00011981422741191279   2.0889194890093494e-05   3.306269139588693e-06
-0.00011746280529613476   0.0   -0.00011632778217979955
-0.00011746280529613476   0.0   -0.00011632778217979955
-0.00011746280529613476   0.0   -0.00011632778217979955
-0.00011746280529613476   0.0   -0.00011632778217979955
-0.00019703726600587228   2.5051657264955624e-05   1.2653246441235097e-06
-0.00019703726600587228   2.5051657264955624e-05   1.2653246441235097e-06
-0.00019703726600587228   2.5051657264955624e-05   1.2653246441235097e-06
-0.00019703726600587228   2.5051657264955624e-05   1.2653246441235097e-06
-0.00015285751584188446   5.80233103405898e-06   -6.081799655731819e-05
-0.00015285751584188446   5.80233103405898e-06   -6.081799655731819e-05
-0.00015285751584188446   5.80233103405898e-06   -6.081799655731819e-05
-0.00015285751584188446   5.80233103405898e-06   -6.081799655731819e-05
-0.0001970372660058726   0.0   -0.00013135877653877297
-0.0001970372660058726   0.0   -0.00013135877653877297
-0.0001970372660058726   0.0   -0.00013135877653877297
-0.0001970372660058726   0.0   -0.00013135877653877297
-0.00011746280529613476   2.505165726495568e-05   1.6296319003096895e-05
-0.00011746280529613476   2.505165726495568e-05   1.6296319003096895e-05
-0.00011746280529613476   2.505165726495568e-05   1.6296319003096895e-05
-0.00011746280529613476   2.505165726495568e-05   1.6296319003096895e-05
-0.00011781366006389138   0.0   -0.00011918035012310665
-0.00011781366006389138   0.0   -0.00011918035012310665
-0.00011781366006389138   0.0   -0.00011918035012310665
-0.00011781366006389138   0.0   -0.00011918035012310665
-0.00020321590611305598   2.6834595911104175e-05   7.055969078839099e-06
-0.00020321590611305598   2.6834595911104175e-05   7.055969078839099e-06
-0.00020321590611305598   2.6834595911104175e-05   7.055969078839099e-06
-0.00020321590611305598   2.6834595911104175e-05   7.055969078839099e-06
-0.00015742546303488172   1.0148688679721918e-05   -5.9249891712621916e-05
-0.00015742546303488172   1.0148688679721918e-05   -5.9249891712621916e-05
-0.00015742546303488172   1.0148688679721918e-05   -5.9249891712621916e-05
-0.00015742546303488172   1.0148688679721918e-05   -5.9249891712621916e-05
-0.00020321590611305633   0.0   -0.00013528110766976919
-0.00020321590611305633   0.0   -0.00013528110766976919
-0.00020321590611305633   0.0   -0.00013528110766976919
-0.00020321590611305633   0.0   -0.00013528110766976919
-0.00011781366006389138   2.683459591110423e-05   2.3156726625501582e-05
-0.00011781366006389138   2.683459591110423e-05   2.3156726625501582e-05
-0.00011781366006389138   2.683459591110423e-05   2.3156726625501582e-05
-0.00011781366006389138   2.683459591110423e-05   2.3156726625501582e-05
-0.00011777381673098121   0.0   -0.00011991025735687345
-0.00011777381673098121   0.0   -0.00011991025735687345
-0.00011777381673098121   0.0   -0.00011991025735687345
-0.00011777381673098121   0.0   -0.00011991025735687345
-0.0002165069592595137   3.0556117614667026e-05   2.6311309621880976e-05
-0.0002165069592595137   3.0556117614667026e-05   2.6311309621880976e-05
-0.0002165069592595137   3.0556117614667026e-05   2.6311309621880976e-05
-0.0002165069592595137   3.0556117614667026e-05   2.6311309621880976e-05
-0.0001604948614220185   1.2809041927413099e-05   -5.6393941361591895e-05
-0.0001604948614220185   1.2809041927413099e-05   -5.6393941361591895e-05
-0.0001604948614220185   1.2809041927413099e-05   -5.6393941361591895e-05
-0.0001604948614220185   1.2809041927413099e-05   -5.6393941361591895e-05
-0.00011981422741191299   0.0   -0.00011075706248661423
-0.00011981422741191299   0.0   -0.00011075706248661423
-0.00011981422741191299   0.0   -0.00011075706248661423
-0.00011981422741191299   0.0   -0.00011075706248661423
-5.454139396751711e-05   7.667983768673857e-06   2.631783515249814e-06
-5.454139396751711e-05   7.667983768673857e-06   2.631783515249814e-06
-5.454139396751711e-05   7.667983768673857e-06   2.631783515249814e-06
-5.454139396751711e-05   7.667983768673857e-06   2.631783515249814e-06
-5.247623317216766e-05   0.0   -0.00010978449288478934
-5.247623317216766e-05   0.0   -0.00010978449288478934
-5.247623317216766e-05   0.0   -0.00010978449288478934
-5.247623317216766e-05   0.0   -0.00010978449288478934
-0.00011746280529613476   1.0905482158350346e-05   -8.016828639854446e-06
-0.00011746280529613476   1.0905482158350346e-05   -8.016828639854446e-06
-0.00011746280529613476   1.0905482158350346e-05   -8.016828639854446e-06
-0.00011746280529613476   1.0905482158350346e-05   -8.016828639854446e-06
-8.614523029204018e-05   8.104746681874062e-07   -5.415578248591388e-05
-8.614523029204018e-05   8.104746681874062e-07   -5.415578248591388e-05
-8.614523029204018e-05   8.104746681874062e-07   -5.415578248591388e-05
-8.614523029204018e-05   8.104746681874062e-07   -5.415578248591388e-05
-0.00011746280529613465   0.0   -0.00011632778217979946
-0.00011746280529613465   0.0   -0.00011632778217979946
-0.00011746280529613465   0.0   -0.00011632778217979946
-0.00011746280529613465   0.0   -0.00011632778217979946
-5.247623317216766e-05   1.0905482158350346e-05   -1.4735393448442216e-06
-5.247623317216766e-05   1.0905482158350346e-05   -1.4735393448442216e-06
-5.247623317216766e-05   1.0905482158350346e-05   -1.4735393448442216e-06
-5.247623317216766e-05   1.0905482158350346e-05   -1.4735393448442216e-06
-5.132438272180554e-05   0.0   -0.00011116663546199055
-5.132438272180554e-05   0.0   -0.00011116663546199055
-5.132438272180554e-05   0.0   -0.00011116663546199055
-5.132438272180554e-05   0.0   -0.00011116663546199055
-0.00011781366006389138   1.3356191101860152e-05   -8.364887886296946e-06
-0.00011781366006389138   1.3356191101860152e-05   -8.364887886296946e-06
-0.00011781366006389138   1.3356191101860152e-05   -8.364887886296946e-06
-0.00011781366006389138   1.3356191101860152e-05   -8.364887886296946e-06
-8.439359400896999e-05   4.300955598174168e-06   -5.863185667562054e-05
-8.439359400896999e-05   4.300955598174168e-06   -5.863185667562054e-05
-8.439359400896999e-05   4.300955598174168e-06   -5.863185667562054e-05
-8.439359400896999e-05   4.300955598174168e-06   -5.863185667562054e-05
-0.00011781366006389138   0.0   -0.00011918035012310665
-0.00011781366006389138   0.0   -0.00011918035012310665
-0.00011781366006389138   0.0   -0.00011918035012310665
-0.00011781366006389138   0.0   -0.00011918035012310665
-5.132438272180554e-05   1.3356191101860152e-05   -3.511732251808465e-07
-5.132438272180554e-05   1.3356191101860152e-05   -3.511732251808465e-07
-5.132438272180554e-05   1.3356191101860152e-05   -3.511732251808465e-07
-5.132438272180554e-05   1.3356191101860152e-05   -3.511732251808465e-07
-5.027876863573775e-05   0.0   -0.00011058815293852574
-5.027876863573775e-05   0.0   -0.00011058815293852574
-5.027876863573775e-05   0.0   -0.00011058815293852574
-5.027876863573775e-05   0.0   -0.00011058815293852574
-0.00011777381673098091   1.553684069724597e-05   -7.4185105314676354e-06
-0.00011777381673098091   1.553684069724597e-05   -7.4185105314676354e-06
-0.00011777381673098091   1.553684069724597e-05   -7.4185105314676354e-06
-0.00011777381673098091   1.553684069724597e-05   -7.4185105314676354e-06
-8.404621434981454e-05   7.1601643204840105e-06   -5.860517534068816e-05
-8.404621434981454e-05   7.1601643204840105e-06   -5.860517534068816e-05
-8.404621434981454e-05   7.1601643204840105e-06   -5.860517534068816e-05
-8.404621434981454e-05   7.1601643204840105e-06   -5.860517534068816e-05
-5.4541393967517204e-05   0.0   -0.0001061562722254099
-5.4541393967517204e-05   0.0   -0.0001061562722254099
-5.4541393967517204e-05   0.0   -0.0001061562722254099
-5.4541393967517204e-05   0.0   -0.0001061562722254099
7.1459130657662064e-06   -9.773774144557408e-07   -3.930520285277577e-06
7.1459130657662064e-06   -9.773774144557408e-07   -3.930520285277577e-06
7.1459130657662064e-06   -9.773774144557408e-07   -3.930520285277577e-06
7.1459130657662064e-06   -9.773774144557408e-07   -3.930520285277577e-06
8.455021258481913e-06   0.0   -0.00010862577887699062
8.455021258481913e-06   0.0   -0.00010862577887699062
8.455021258481913e-06   0.0   -0.00010862577887699062
8.455021258481913e-06   0.0   -0.00010862577887699062
-5.247623317216766e-05   1.931190012997245e-06   -8.232402167040025e-06
-5.247623317216766e-05   1.931190012997245e-06   -8.232402167040025e-06
-5.247623317216766e-05   1.931190012997245e-06   -8.232402167040025e-06
-5.247623317216766e-05   1.931190012997245e-06   -8.232402167040025e-06
-2.304318635451759e-05   -2.0579222096508997e-06   -5.48940128628677e-05
-2.304318635451759e-05   -2.0579222096508997e-06   -5.48940128628677e-05
-2.304318635451759e-05   -2.0579222096508997e-06   -5.48940128628677e-05
-2.304318635451759e-05   -2.0579222096508997e-06   -5.48940128628677e-05
-5.247623317216766e-05   0.0   -0.00010978449288478934
-5.247623317216766e-05   0.0   -0.00010978449288478934
-5.247623317216766e-05   0.0   -0.00010978449288478934
-5.247623317216766e-05   0.0   -0.00010978449288478934
8.455021258481928e-06   1.931190012997245e-06   -7.073688159241664e-06
8.455021258481928e-06   1.931190012997245e-06   -7.073688159241664e-06
8.455021258481928e-06   1.931190012997245e-06   -7.073688159241664e-06
8.455021258481928e-06   1.931190012997245e-06   -7.073688159241664e-06
9.485663279450708e-06   0.0   -0.00010847187761044093
9.485663279450708e-06   0.0   -0.00010847187761044093
9.485663279450708e-06   0.0   -0.00010847187761044093
9.485663279450708e-06   0.0   -0.00010847187761044093
-5.132438272180545e-05   4.491263085915732e-06   -9.816558793230114e-06
-5.132438272180545e-05   4.491263085915732e-06   -9.816558793230114e-06
-5.132438272180545e-05   4.491263085915732e-06   -9.816558793230114e-06
-5.132438272180545e-05   4.491263085915732e-06   -9.816558793230114e-06
-2.149528494635847e-05   1.093846061956847e-06   -5.749327153793321e-05
-2.149528494635847e-05   1.093846061956847e-06   -5.749327153793321e-05
-2.149528494635847e-05   1.093846061956847e-06   -5.749327153793321e-05
-2.149528494635847e-05   1.093846061956847e-06   -5.749327153793321e-05
-5.132438272180554e-05   0.0   -0.00011116663546199055
-5.132438272180554e-05   0.0   -0.00011116663546199055
-5.132438272180554e-05   0.0   -0.00011116663546199055
-5.132438272180554e-05   0.0   -0.00011116663546199055
9.485663279450723e-06   4.491263085915732e-06   -7.121800941680697e-06
9.485663279450723e-06   4.491263085915732e-06   -7.121800941680697e-06
9.485663279450723e-06   4.491263085915732e-06   -7.121800941680697e-06
9.485663279450723e-06   4.491263085915732e-06   -7.121800941680697e-06
1.0878899688203405e-05   0.0   -0.0001061135660280006
1.0878899688203405e-05   0.0   -0.0001061135660280006
1.0878899688203405e-05   0.0   -0.0001061135660280006
1.0878899688203405e-05   0.0   -0.0001061135660280006
-5.02787686357377e-05   7.4576448508750564e-06   -8.658705731957137e-06
-5.02787686357377e-05   7.4576448508750564e-06   -8.658705731957137e-06
-5.02787686357377e-05   7.4576448508750564e-06   -8.658705731957137e-06
-5.02787686357377e-05   7.4576448508750564e-06   -8.658705731957137e-06
-2.0222741516801023e-05   4.210891194991463e-06   -5.680403206998806e-05
-2.0222741516801023e-05   4.210891194991463e-06   -5.680403206998806e-05
-2.0222741516801023e-05   4.210891194991463e-06   -5.680403206998806e-05
-2.0222741516801023e-05   4.210891194991463e-06   -5.680403206998806e-05
7.145913065766218e-06   0.0   -0.00010674269867408335
7.145913065766218e-06   0.0   -0.00010674269867408335
7.145913065766218e-06   0.0   -0.00010674269867408335
7.145913065766218e-06   0.0   -0.00010674269867408335
7.40898857468014e-05   -8.689883624322052e-06   -3.8334104695124534e-07
7.40898857468014e-05   -8.689883624322052e-06   -3.8334104695124534e-07
7.40898857468014e-05   -8.689883624322052e-06   -3.8334104695124534e-07
7.40898857468014e-05   -8.689883624322052e-06   -3.8334104695124534e-07
7.419589039171166e-05   0.0   -0.00011255970517822779
7.419589039171166e-05   0.0   -0.00011255970517822779
7.419589039171166e-05   0.0   -0.00011255970517822779
7.419589039171166e-05   0.0   -0.00011255970517822779
8.455021258481942e-06   -6.556543835394642e-06   9.423363450585218e-07
8.455021258481942e-06   -6.556543835394642e-06   9.423363450585218e-07
8.455021258481942e-06   -6.556543835394642e-06   9.423363450585218e-07
8.455021258481942e-06   -6.556543835394642e-06   9.423363450585218e-07
4.067090172873894e-05   -4.847505420120364e-06   -5.3776220821201e-05
4.067090172873894e-05   -4.847505420120364e-06   -5.3776220821201e-05
4.067090172873894e-05   -4.847505420120364e-06   -5.3776220821201e-05
4.067090172873894e-05   -4.847505420120364e-06   -5.3776220821201e-05
8.455021258481942e-06   0.0   -0.00010862577887699099
8.455021258481942e-06   0.0   -0.00010862577887699099
8.455021258481942e-06   0.0   -0.00010862577887699099
8.455021258481942e-06   0.0   -0.00010862577887699099
7.419589039171166e-05   -6.556543835394642e-06   -2.991589956178269e-06
7.419589039171166e-05   -6.556543835394642e-06   -2.991589956178269e-06
7.419589039171166e-05   -6.556543835394642e-06   -2.991589956178269e-06
7.419589039171166e-05   -6.556543835394642e-06   -2.991589956178269e-06
7.385593822333017e-05   0.0   -0.00011095221068477075
7.385593822333017e-05   0.0   -0.00011095221068477075
7.385593822333017e-05   0.0   -0.00011095221068477075
7.385593822333017e-05   0.0   -0.00011095221068477075
9.485663279450723e-06   -4.1338884572160505e-06   -1.1880860373087365e-06
9.485663279450723e-06   -4.1338884572160505e-06   -1.1880860373087365e-06
9.485663279450723e-06   -4.1338884572160505e-06   -1.1880860373087365e-06
9.485663279450723e-06   -4.1338884572160505e-06   -1.1880860373087365e-06
4.115547974090605e-05   -1.9386931731498006e-06   -5.5288230643507314e-05
4.115547974090605e-05   -1.9386931731498006e-06   -5.5288230643507314e-05
4.115547974090605e-05   -1.9386931731498006e-06   -5.5288230643507314e-05
4.115547974090605e-05   -1.9386931731498006e-06   -5.5288230643507314e-05
9.485663279450715e-06   0.0   -0.00010847187761044102
9.485663279450715e-06   0.0   -0.00010847187761044102
9.485663279450715e-06   0.0   -0.00010847187761044102
9.485663279450715e-06   0.0   -0.00010847187761044102
7.385593822333017e-05   -4.1338884572160505e-06   -3.668419111638372e-06
7.385593822333017e-05   -4.1338884572160505e-06   -3.668419111638372e-06
7.385593822333017e-05   -4.1338884572160505e-06   -3.668419111638372e-06
7.385593822333017e-05   -4.1338884572160505e-06   -3.668419111638372e-06
7.526499162172094e-05   0.0   -0.00010663978332640556
7.526499162172094e-05   0.0   -0.00010663978332640556
7.526499162172094e-05   0.0   -0.00010663978332640556
7.526499162172094e-05   0.0   -0.00010663978332640556
1.0878899688203423e-05   -8.770288306746219e-07   1.1965871945283898e-06
1.0878899688203423e-05   -8.770288306746219e-07   1.1965871945283898e-06
1.0878899688203423e-05   -8.770288306746219e-07   1.1965871945283898e-06
1.0878899688203423e-05   -8.770288306746219e-07   1.1965871945283898e-06
4.23753274505858e-05   1.5267452366962995e-06   -5.273972351653142e-05
4.23753274505858e-05   1.5267452366962995e-06   -5.273972351653142e-05
4.23753274505858e-05   1.5267452366962995e-06   -5.273972351653142e-05
4.23753274505858e-05   1.5267452366962995e-06   -5.273972351653142e-05
7.40898857468014e-05   0.0   -0.00011195662884867659
7.40898857468014e-05   0.0   -0.00011195662884867659
7.40898857468014e-05   0.0   -0.00011195662884867659
7.40898857468014e-05   0.0   -0.00011195662884867659
0.0001671324014789834   -2.201149883433902e-05   2.9907331404357594e-05
0.0001671324014789834   -2.201149883433902e-05   2.9907331404357594e-05
0.0001671324014789834   -2.201149883433902e-05   2.9907331404357594e-05
0.0001671324014789834   -2.201149883433902e-05   2.9907331404357594e-05
0.00015693086265523607   0.0   -0.00012380483191392933
0.00015693086265523607   0.0   -0.00012380483191392933
0.00015693086265523607   0.0   -0.00012380483191392933
0.00015693086265523607   0.0   -0.00012380483191392933
7.419589039171166e-05   -1.874187789283589e-05   2.533191526097952e-05
7.419589039171166e-05   -1.874187789283589e-05   2.533191526097952e-05
7.419589039171166e-05   -1.874187789283589e-05   2.533191526097952e-05
7.419589039171166e-05   -1.874187789283589e-05   2.533191526097952e-05
0.00011551037420101873   -9.873502554377282e-06   -4.884658295760736e-05
0.00011551037420101873   -9.873502554377282e-06   -4.884658295760736e-05
0.00011551037420101873   -9.873502554377282e-06   -4.884658295760736e-05
0.00011551037420101873   -9.873502554377282e-06   -4.884658295760736e-05
7.41958903917116e-05   0.0   -0.00011255970517822769
7.41958903917116e-05   0.0   -0.00011255970517822769
7.41958903917116e-05   0.0   -0.00011255970517822769
7.41958903917116e-05   0.0   -0.00011255970517822769
0.00015693086265523552   -1.8741877892835835e-05   1.408678852527791e-05
0.00015693086265523552   -1.8741877892835835e-05   1.408678852527791e-05
0.00015693086265523552   -1.8741877892835835e-05   1.408678852527791e-05
0.00015693086265523552   -1.8741877892835835e-05   1.408678852527791e-05
0.0001522165058461248   0.0   -0.00012123061854655525
0.0001522165058461248   0.0   -0.00012123061854655525
0.0001522165058461248   0.0   -0.00012123061854655525
0.0001522165058461248   0.0   -0.00012123061854655525
7.385593822333017e-05   -1.7130679769640825e-05   1.9648735353220277e-05
7.385593822333017e-05   -1.7130679769640825e-05   1.9648735353220277e-05
7.385593822333017e-05   -1.7130679769640825e-05   1.9648735353220277e-05
7.385593822333017e-05   -1.7130679769640825e-05   1.9648735353220277e-05
0.00011320619811891816   -7.225761140272879e-06   -5.1877982317047154e-05
0.00011320619811891816   -7.225761140272879e-06   -5.1877982317047154e-05
0.00011320619811891816   -7.225761140272879e-06   -5.1877982317047154e-05
0.00011320619811891816   -7.225761140272879e-06   -5.1877982317047154e-05
7.385593822333017e-05   0.0   -0.00011095221068477075
7.385593822333017e-05   0.0   -0.00011095221068477075
7.385593822333017e-05   0.0   -0.00011095221068477075
7.385593822333017e-05   0.0   -0.00011095221068477075
0.0001522165058461243   -1.7130679769640744e-05   9.370327491435798e-06
0.0001522165058461243   -1.7130679769640744e-05   9.370327491435798e-06
0.0001522165058461243   -1.7130679769640744e-05   9.370327491435798e-06
0.0001522165058461243   -1.7130679769640744e-05   9.370327491435798e-06
0.00014521365852967127   0.0   -0.00011463799735430287
0.00014521365852967127   0.0   -0.00011463799735430287
0.00014521365852967127   0.0   -0.00011463799735430287
0.00014521365852967127   0.0   -0.00011463799735430287
7.526499162172094e-05   -1.3330356713162544e-05   9.941328186845394e-06
7.526499162172094e-05   -1.3330356713162544e-05   9.941328186845394e-06
7.526499162172094e-05   -1.3330356713162544e-05   9.941328186845394e-06
7.526499162172094e-05   -1.3330356713162544e-05   9.941328186845394e-06
0.00010953479837650084   -3.071488891276934e-06   -5.3330337097585745e-05
0.00010953479837650084   -3.071488891276934e-06   -5.3330337097585745e-05
0.00010953479837650084   -3.071488891276934e-06   -5.3330337097585745e-05
0.00010953479837650084   -3.071488891276934e-06   -5.3330337097585745e-05
-0.0001635278109712271   2.0889194890093466e-05   -0.00010712266365014913
-0.0001635278109712271   2.0889194890093466e-05   -0.00010712266365014913
-0.0001635278109712271   2.0889194890093466e-05   -0.00010712266365014913