<?xml version="1.0"?> 
<VTKFile type="UnstructuredGrid"> 
   <UnstructuredGrid> 
      <Piece NumberOfPoints="6000"  NumberOfCells="1500">  
          <Points>  
             <DataArray type="Float64" NumberOfComponents="3" format="ascii">   
-500.0   0.0   0.0
-450.0   0.0   0.0
-500.0   30.0   0.0
-500.0   0.0   16.666666666666668
-450.0   0.0   0.0
-450.0   30.0   0.0
-500.0   30.0   0.0
-450.0   30.0   16.666666666666668
-500.0   0.0   16.666666666666668
-500.0   30.0   16.666666666666668
-450.0   30.0   16.666666666666668
-500.0   30.0   0.0
-500.0   0.0   16.666666666666668
-450.0   30.0   16.666666666666668
-450.0   0.0   16.666666666666668
-450.0   0.0   0.0
-500.0   0.0   16.666666666666668
-450.0   30.0   16.666666666666668
-450.0   0.0   0.0
-500.0   30.0   0.0
-500.0   0.0   16.666666666666668
-450.0   0.0   16.666666666666668
-500.0   30.0   16.666666666666668
-500.0   0.0   33.333333333333336
-450.0   0.0   16.666666666666668
-450.0   30.0   16.666666666666668
-500.0   30.0   16.666666666666668
-450.0   30.0   33.333333333333336
-500.0   0.0   33.333333333333336
-500.0   30.0   33.333333333333336
-450.0   30.0   33.333333333333336
-500.0   30.0   16.666666666666668
-500.0   0.0   33.333333333333336
-450.0   30.0   33.333333333333336
-450.0   0.0   33.333333333333336
-450.0   0.0   16.666666666666668
-500.0   0.0   33.333333333333336
-450.0   30.0   33.333333333333336
-450.0   0.0   16.666666666666668
-500.0   30.0   16.666666666666668
-500.0   0.0   33.333333333333336
-450.0   0.0   33.333333333333336
-500.0   30.0   33.333333333333336
-500.0   0.0   50.0
-450.0   0.0   33.333333333333336
-450.0   30.0   33.333333333333336
-500.0   30.0   33.333333333333336
-450.0   30.0   50.0
-500.0   0.0   50.0
-500.0   30.0   50.0
-450.0   30.0   50.0
-500.0   30.0   33.333333333333336
-500.0   0.0   50.0
-450.0   30.0   50.0
-450.0   0.0   50.0
-450.0   0.0   33.333333333333336
-500.0   0.0   50.0
-450.0   30.0   50.0
-450.0   0.0   33.333333333333336
-500.0   30.0   33.333333333333336
-500.0   30.0   0.0
-450.0   30.0   0.0
-500.0   60.0   0.0
-500.0   30.0   16.666666666666668
-450.0   30.0   0.0
-450.0   60.0   0.0
-500.0   60.0   0.0
-450.0   60.0   16.666666666666668
-500.0   30.0   16.666666666666668
-500.0   60.0   16.666666666666668
-450.0   60.0   16.666666666666668
-500.0   60.0   0.0
-500.0   30.0   16.666666666666668
-450.0   60.0   16.666666666666668
-450.0   30.0   16.666666666666668
-450.0   30.0   0.0
-500.0   30.0   16.666666666666668
-450.0   60.0   16.666666666666668
-450.0   30.0   0.0
-500.0   60.0   0.0
-500.0   30.0   16.666666666666668
-450.0   30.0   16.666666666666668
-500.0   60.0   16.666666666666668
-500.0   30.0   33.333333333333336
-450.0   30.0   16.666666666666668
-450.0   60.0   16.666666666666668
-500.0   60.0   16.666666666666668
-450.0   60.0   33.333333333333336
-500.0   30.0   33.333333333333336
-500.0   60.0   33.333333333333336
-450.0   60.0   33.333333333333336
-500.0   60.0   16.666666666666668
-500.0   30.0   33.333333333333336
-450.0   60.0   33.333333333333336
-450.0   30.0   33.333333333333336
-450.0   30.0   16.666666666666668
-500.0   30.0   33.333333333333336
-450.0   60.0   33.333333333333336
-450.0   30.0   16.666666666666668
-500.0   60.0   16.666666666666668
-500.0   30.0   33.333333333333336
-450.0   30.0   33.333333333333336
-500.0   60.0   33.333333333333336
-500.0   30.0   50.0
-450.0   30.0   33.333333333333336
-450.0   60.0   33.333333333333336
-500.0   60.0   33.333333333333336
-450.0   60.0   50.0
-500.0   30.0   50.0
-500.0   60.0   50.0
-450.0   60.0   50.0
-500.0   60.0   33.333333333333336
-500.0   30.0   50.0
-450.0   60.0   50.0
-450.0   30.0   50.0
-450.0   30.0   33.333333333333336
-500.0   30.0   50.0
-450.0   60.0   50.0
-450.0   30.0   33.333333333333336
-500.0   60.0   33.333333333333336
-500.0   60.0   0.0
-450.0   60.0   0.0
-500.0   90.0   0.0
-500.0   60.0   16.666666666666668
-450.0   60.0   0.0
-450.0   90.0   0.0
-500.0   90.0   0.0
-450.0   90.0   16.666666666666668
-500.0   60.0   16.666666666666668
-500.0   90.0   16.666666666666668
-450.0   90.0   16.666666666666668
-500.0   90.0   0.0
-500.0   60.0   16.666666666666668
-450.0   90.0   16.666666666666668
-450.0   60.0   16.666666666666668
-450.0   60.0   0.0
-500.0   60.0   16.666666666666668
-450.0   90.0   16.666666666666668
-450.0   60.0   0.0
-500.0   90.0   0.0
-500.0   60.0   16.666666666666668
-450.0   60.0   16.666666666666668
-500.0   90.0   16.666666666666668
-500.0   60.0   33.333333333333336
-450.0   60.0   16.666666666666668
-450.0   90.0   16.666666666666668
-500.0   90.0   16.666666666666668
-450.0   90.0   33.333333333333336
-500.0   60.0   33.333333333333336
-500.0   90.0   33.333333333333336
-450.0   90.0   33.333333333333336
-500.0   90.0   16.666666666666668
-500.0   60.0   33.333333333333336
-450.0   90.0   33.333333333333336
-450.0   60.0   33.333333333333336
-450.0   60.0   16.666666666666668
-500.0   60.0   33.333333333333336
-450.0   90.0   33.333333333333336
-450.0   60.0   16.666666666666668
-500.0   90.0   16.666666666666668
-500.0   60.0   33.333333333333336
-450.0   60.0   33.333333333333336
-500.0   90.0   33.333333333333336
-500.0   60.0   50.0
-450.0   60.0   33.333333333333336
-450.0   90.0   33.333333333333336
-500.0   90.0   33.333333333333336
-450.0   90.0   50.0
-500.0   60.0   50.0
-500.0   90.0   50.0
-450.0   90.0   50.0
-500.0   90.0   33.333333333333336
-500.0   60.0   50.0
-450.0   90.0   50.0
-450.0   60.0   50.0
-450.0   60.0   33.333333333333336
-500.0   60.0   50.0
-450.0   90.0   50.0
-450.0   60.0   33.333333333333336
-500.0   90.0   33.333333333333336
-500.0   90.0   0.0
-450.0   90.0   0.0
-500.0   120.0   0.0
-500.0   90.0   16.666666666666668
-450.0   90.0   0.0
-450.0   120.0   0.0
-500.0   120.0   0.0
-450.0   120.0   16.666666666666668
-500.0   90.0   16.666666666666668
-500.0   120.0   16.666666666666668
-450.0   120.0   16.666666666666668
-500.0   120.0   0.0
-500.0   90.0   16.666666666666668
-450.0   120.0   16.666666666666668
-450.0   90.0   16.666666666666668
-450.0   90.0   0.0
-500.0   90.0   16.666666666666668
-450.0   120.0   16.666666666666668
-450.0   90.0   0.0
-500.0   120.0   0.0
-500.0   90.0   16.666666666666668
-450.0   90.0   16.666666666666668
-500.0   120.0   16.666666666666668
-500.0   90.0   33.333333333333336
-450.0   90.0   16.666666666666668
-450.0   120.0   16.666666666666668
-500.0   120.0   16.666666666666668
-450.0   120.0   33.333333333333336
-500.0   90.0   33.333333333333336
-500.0   120.0   33.333333333333336
-450.0   120.0   33.333333333333336
-500.0   120.0   16.666666666666668
-500.0   90.0   33.333333333333336
-450.0   120.0   33.333333333333336
-450.0   90.0   33.333333333333336
-450.0   90.0   16.666666666666668
-500.0   90.0   33.333333333333336
-450.0   120.0   33.333333333333336
-450.0   90.0   16.666666666666668
-500.0   120.0   16.666666666666668
-500.0   90.0   33.333333333333336
-450.0   90.0   33.333333333333336
-500.0   120.0   33.333333333333336
-500.0   90.0   50.0
-450.0   90.0   33.333333333333336
-450.0   120.0   33.333333333333336
-500.0   120.0   33.333333333333336
-450.0   120.0   50.0
-500.0   90.0   50.0
-500.0   120.0   50.0
-450.0   120.0   50.0
-500.0   120.0   33.333333333333336
-500.0   90.0   50.0
-450.0   120.0   50.0
-450.0   90.0   50.0
-450.0   90.0   33.333333333333336
-500.0   90.0   50.0
-450.0   120.0   50.0
-450.0   90.0   33.333333333333336
-500.0   120.0   33.333333333333336
-500.0   120.0   0.0
-450.0   120.0   0.0
-500.0   150.0   0.0
-500.0   120.0   16.666666666666668
-450.0   120.0   0.0
-450.0   150.0   0.0
-500.0   150.0   0.0
-450.0   150.0   16.666666666666668
-500.0   120.0   16.666666666666668
-500.0   150.0   16.666666666666668
-450.0   150.0   16.666666666666668
-500.0   150.0   0.0
-500.0   120.0   16.666666666666668
-450.0   150.0   16.666666666666668
-450.0   120.0   16.666666666666668
-450.0   120.0   0.0
-500.0   120.0   16.666666666666668
-450.0   150.0   16.666666666666668
-450.0   120.0   0.0
-500.0   150.0   0.0
-500.0   120.0   16.666666666666668
-450.0   120.0   16.666666666666668
-500.0   150.0   16.666666666666668
-500.0   120.0   33.333333333333336
-450.0   120.0   16.666666666666668
-450.0   150.0   16.666666666666668
-500.0   150.0   16.666666666666668
-450.0   150.0   33.333333333333336
-500.0   120.0   33.333333333333336
-500.0   150.0   33.333333333333336
-450.0   150.0   33.333333333333336
-500.0   150.0   16.666666666666668
-500.0   120.0   33.333333333333336
-450.0   150.0   33.333333333333336
-450.0   120.0   33.333333333333336
-450.0   120.0   16.666666666666668
-500.0   120.0   33.333333333333336
-450.0   150.0   33.333333333333336
-450.0   120.0   16.666666666666668
-500.0   150.0   16.666666666666668
-500.0   120.0   33.333333333333336
-450.0   120.0   33.333333333333336
-500.0   150.0   33.333333333333336
-500.0   120.0   50.0
-450.0   120.0   33.333333333333336
-450.0   150.0   33.333333333333336
-500.0   150.0   33.333333333333336
-450.0   150.0   50.0
-500.0   120.0   50.0
-500.0   150.0   50.0
-450.0   150.0   50.0
-500.0   150.0   33.333333333333336
-500.0   120.0   50.0
-450.0   150.0   50.0
-450.0   120.0   50.0
-450.0   120.0   33.333333333333336
-500.0   120.0   50.0
-450.0   150.0   50.0
-450.0   120.0   33.333333333333336
-500.0   150.0   33.333333333333336
-450.0   0.0   0.0
-400.0   0.0   0.0
-450.0   30.0   0.0
-450.0   0.0   16.666666666666668
-400.0   0.0   0.0
-400.0   30.0   0.0
-450.0   30.0   0.0
-400.0   30.0   16.666666666666668
-450.0   0.0   16.666666666666668
-450.0   30.0   16.666666666666668
-400.0   30.0   16.666666666666668
-450.0   30.0   0.0
-450.0   0.0   16.666666666666668
-400.0   30.0   16.666666666666668
-400.0   0.0   16.666666666666668
-400.0   0.0   0.0
-450.0   0.0   16.666666666666668
-400.0   30.0   16.666666666666668
-400.0   0.0   0.0
-450.0   30.0   0.0
-450.0   0.0   16.666666666666668
-400.0   0.0   16.666666666666668
-450.0   30.0   16.666666666666668
[...]
          <PointData>  
             <DataArray type="Float64" NumberOfComponents="3" Name="Strains" format="ascii">   
-0.0005011819720589044   0.0   -0.0003277998272557162
-0.0005011819720589044   0.0   -0.0003277998272557162
-0.0005011819720589044   0.0   -0.0003277998272557162
-0.0005011819720589044   0.0   -0.0003277998272557162
-0.0003190232603675733   5.56708648758109e-05   9.200544488654691e-06
-0.0003190232603675733   5.56708648758109e-05   9.200544488654691e-06
-0.0003190232603675733   5.56708648758109e-05   9.200544488654691e-06
-0.0003190232603675733   5.56708648758109e-05   9.200544488654691e-06
-0.0003127920396555803   0.0   -0.0003092299668130972
-0.0003127920396555803   0.0   -0.0003092299668130972
-0.0003127920396555803   0.0   -0.0003092299668130972
-0.0003127920396555803   0.0   -0.0003092299668130972
-0.0005246071414001794   6.67365381781151e-05   3.7532798543668967e-06
-0.0005246071414001794   6.67365381781151e-05   3.7532798543668967e-06
-0.0005246071414001794   6.67365381781151e-05   3.7532798543668967e-06
-0.0005246071414001794   6.67365381781151e-05   3.7532798543668967e-06
-0.0004069870058572416   1.5474883702182524e-05   -0.00016152328669830296
-0.0004069870058572416   1.5474883702182524e-05   -0.00016152328669830296
-0.0004069870058572416   1.5474883702182524e-05   -0.00016152328669830296
-0.0004069870058572416   1.5474883702182524e-05   -0.00016152328669830296
-0.0005246071414001803   0.0   -0.00034927188971996633
-0.0005246071414001803   0.0   -0.00034927188971996633
-0.0005246071414001803   0.0   -0.00034927188971996633
-0.0005246071414001803   0.0   -0.00034927188971996633
-0.0003127920396555803   6.673653817811521e-05   4.379520276123598e-05
-0.0003127920396555803   6.673653817811521e-05   4.379520276123598e-05
-0.0003127920396555803   6.673653817811521e-05   4.379520276123598e-05
-0.0003127920396555803   6.673653817811521e-05   4.379520276123598e-05
-0.0003137585413186895   0.0   -0.00031682153977712085
-0.0003137585413186895   0.0   -0.00031682153977712085
-0.0003137585413186895   0.0   -0.00031682153977712085
-0.0003137585413186895   0.0   -0.00031682153977712085
-0.0005410971421604754   7.147870916803228e-05   1.9188902791704302e-05
-0.0005410971421604754   7.147870916803228e-05   1.9188902791704302e-05
-0.0005410971421604754   7.147870916803228e-05   1.9188902791704302e-05
-0.0005410971421604754   7.147870916803228e-05   1.9188902791704302e-05
-0.0004191828413594342   2.7041958285704533e-05   -0.00015733954801396748
-0.0004191828413594342   2.7041958285704533e-05   -0.00015733954801396748
-0.0004191828413594342   2.7041958285704533e-05   -0.00015733954801396748
-0.0004191828413594342   2.7041958285704533e-05   -0.00015733954801396748
-0.0005410971421604762   0.0   -0.00035970876527794033
-0.0005410971421604762   0.0   -0.00035970876527794033
-0.0005410971421604762   0.0   -0.00035970876527794033
-0.0005410971421604762   0.0   -0.00035970876527794033
-0.0003137585413186895   7.147870916803239e-05   6.207612829252373e-05
-0.0003137585413186895   7.147870916803239e-05   6.207612829252373e-05
-0.0003137585413186895   7.147870916803239e-05   6.207612829252373e-05
-0.0003137585413186895   7.147870916803239e-05   6.207612829252373e-05
-0.00031368873456635074   0.0   -0.0003187589665568163
-0.00031368873456635074   0.0   -0.0003187589665568163
-0.00031368873456635074   0.0   -0.0003187589665568163
-0.00031368873456635074   0.0   -0.0003187589665568163
-0.0005765374159250369   8.136821569207516e-05   7.050123962575028e-05
-0.0005765374159250369   8.136821569207516e-05   7.050123962575028e-05
-0.0005765374159250369   8.136821569207516e-05   7.050123962575028e-05
-0.0005765374159250369   8.136821569207516e-05   7.050123962575028e-05
-0.00042739293836341276   3.4124832267603265e-05   -0.00014972685958893994
-0.00042739293836341276   3.4124832267603265e-05   -0.00014972685958893994
-0.00042739293836341276   3.4124832267603265e-05   -0.00014972685958893994
-0.00042739293836341276   3.4124832267603265e-05   -0.00014972685958893994
-0.0003190232603675739   0.0   -0.0002943973083302297
-0.0003190232603675739   0.0   -0.0002943973083302297
-0.0003190232603675739   0.0   -0.0002943973083302297
-0.0003190232603675739   0.0   -0.0002943973083302297
-0.0001451873469693887   2.04467317370681e-05   7.59725304231963e-06
-0.0001451873469693887   2.04467317370681e-05   7.59725304231963e-06
-0.0001451873469693887   2.04467317370681e-05   7.59725304231963e-06
-0.0001451873469693887   2.04467317370681e-05   7.59725304231963e-06
-0.00013972136924154805   0.0   -0.0002917936316137725
-0.00013972136924154805   0.0   -0.0002917936316137725
-0.00013972136924154805   0.0   -0.0002917936316137725
-0.00013972136924154805   0.0   -0.0002917936316137725
-0.0003127920396555803   2.9060558665541098e-05   -2.0778849456376818e-05
-0.0003127920396555803   2.9060558665541098e-05   -2.0778849456376818e-05
-0.0003127920396555803   2.9060558665541098e-05   -2.0778849456376818e-05
-0.0003127920396555803   2.9060558665541098e-05   -2.0778849456376818e-05
-0.00022937231480456055   2.1697305970476216e-06   -0.0001436772273669792
-0.00022937231480456055   2.1697305970476216e-06   -0.0001436772273669792
-0.00022937231480456055   2.1697305970476216e-06   -0.0001436772273669792
-0.00022937231480456055   2.1697305970476216e-06   -0.0001436772273669792
-0.00031279203965558003   0.0   -0.0003092299668130969
-0.00031279203965558003   0.0   -0.0003092299668130969
-0.00031279203965558003   0.0   -0.0003092299668130969
-0.00031279203965558003   0.0   -0.0003092299668130969
-0.00013972136924154805   2.9060558665541098e-05   -3.3425142570520994e-06
-0.00013972136924154805   2.9060558665541098e-05   -3.3425142570520994e-06
-0.00013972136924154805   2.9060558665541098e-05   -3.3425142570520994e-06
-0.00013972136924154805   2.9060558665541098e-05   -3.3425142570520994e-06
-0.00013668599731684073   0.0   -0.00029547387732510296
-0.00013668599731684073   0.0   -0.00029547387732510296
-0.00013668599731684073   0.0   -0.00029547387732510296
-0.00013668599731684073   0.0   -0.00029547387732510296
-0.0003137585413186895   3.557943742002988e-05   -2.170063310737299e-05
-0.0003137585413186895   3.557943742002988e-05   -2.170063310737299e-05
-0.0003137585413186895   3.557943742002988e-05   -2.170063310737299e-05
-0.0003137585413186895   3.557943742002988e-05   -2.170063310737299e-05
-0.00022473901848621007   1.1463407906661812e-05   -0.0001555968867868166
-0.00022473901848621007   1.1463407906661812e-05   -0.0001555968867868166
-0.00022473901848621007   1.1463407906661812e-05   -0.0001555968867868166
-0.00022473901848621007   1.1463407906661812e-05   -0.0001555968867868166
-0.0003137585413186895   0.0   -0.00031682153977712085
-0.0003137585413186895   0.0   -0.00031682153977712085
-0.0003137585413186895   0.0   -0.00031682153977712085
-0.0003137585413186895   0.0   -0.00031682153977712085
-0.00013668599731684073   3.557943742002988e-05   -3.5297065535512344e-07
-0.00013668599731684073   3.557943742002988e-05   -3.5297065535512344e-07
-0.00013668599731684073   3.557943742002988e-05   -3.5297065535512344e-07
-0.00013668599731684073   3.557943742002988e-05   -3.5297065535512344e-07
-0.00013393599132983976   0.0   -0.00029393047766911224
-0.00013393599132983976   0.0   -0.00029393047766911224
-0.00013393599132983976   0.0   -0.00029393047766911224
-0.00013393599132983976   0.0   -0.00029393047766911224
-0.00031368873456634987   4.138081481283964e-05   -1.9171061162631285e-05
-0.00031368873456634987   4.138081481283964e-05   -1.9171061162631285e-05
-0.00031368873456634987   4.138081481283964e-05   -1.9171061162631285e-05
-0.00031368873456634987   4.138081481283964e-05   -1.9171061162631285e-05
-0.00022384726632426456   1.9075885090007e-05   -0.00015552388373240843
-0.00022384726632426456   1.9075885090007e-05   -0.00015552388373240843
-0.00022384726632426456   1.9075885090007e-05   -0.00015552388373240843
-0.00022384726632426456   1.9075885090007e-05   -0.00015552388373240843
-0.00014518734696938895   0.0   -0.00028212926928798877
-0.00014518734696938895   0.0   -0.00028212926928798877
-0.00014518734696938895   0.0   -0.00028212926928798877
-0.00014518734696938895   0.0   -0.00028212926928798877
1.9127042894883983e-05   -2.5978146541966564e-06   -9.830641640051603e-06
1.9127042894883983e-05   -2.5978146541966564e-06   -9.830641640051603e-06
1.9127042894883983e-05   -2.5978146541966564e-06   -9.830641640051603e-06
1.9127042894883983e-05   -2.5978146541966564e-06   -9.830641640051603e-06
2.2576855971261816e-05   0.0   -0.0002887081362598998
2.2576855971261816e-05   0.0   -0.0002887081362598998
2.2576855971261816e-05   0.0   -0.0002887081362598998
2.2576855971261816e-05   0.0   -0.0002887081362598998
-0.00013972136924154805   5.142492256452911e-06   -2.129658959242262e-05
-0.00013972136924154805   5.142492256452911e-06   -2.129658959242262e-05
-0.00013972136924154805   5.142492256452911e-06   -2.129658959242262e-05
-0.00013972136924154805   5.142492256452911e-06   -2.129658959242262e-05
-6.130524549906343e-05   -5.482389143259973e-06   -0.00014561520032340205
-6.130524549906343e-05   -5.482389143259973e-06   -0.00014561520032340205
-6.130524549906343e-05   -5.482389143259973e-06   -0.00014561520032340205
-6.130524549906343e-05   -5.482389143259973e-06   -0.00014561520032340205
-0.00013972136924154805   0.0   -0.0002917936316137725
-0.00013972136924154805   0.0   -0.0002917936316137725
-0.00013972136924154805   0.0   -0.0002917936316137725
-0.00013972136924154805   0.0   -0.0002917936316137725
2.2576855971261856e-05   5.142492256452911e-06   -1.8211094238550847e-05
2.2576855971261856e-05   5.142492256452911e-06   -1.8211094238550847e-05
2.2576855971261856e-05   5.142492256452911e-06   -1.8211094238550847e-05
2.2576855971261856e-05   5.142492256452911e-06   -1.8211094238550847e-05
2.5288515212393198e-05   0.0   -0.0002883015749884799
2.5288515212393198e-05   0.0   -0.0002883015749884799
2.5288515212393198e-05   0.0   -0.0002883015749884799
2.5288515212393198e-05   0.0   -0.0002883015749884799
-0.00013668599731684052   1.1953837227704305e-05   -2.5516356443046334e-05
-0.00013668599731684052   1.1953837227704305e-05   -2.5516356443046334e-05
-0.00013668599731684052   1.1953837227704305e-05   -2.5516356443046334e-05
-0.00013668599731684052   1.1953837227704305e-05   -2.5516356443046334e-05
-5.72164270145774e-05   2.9100471877434428e-06   -0.00015253936625617527
-5.72164270145774e-05   2.9100471877434428e-06   -0.00015253936625617527
-5.72164270145774e-05   2.9100471877434428e-06   -0.00015253936625617527
-5.72164270145774e-05   2.9100471877434428e-06   -0.00015253936625617527
-0.00013668599731684073   0.0   -0.00029547387732510296
-0.00013668599731684073   0.0   -0.00029547387732510296
-0.00013668599731684073   0.0   -0.00029547387732510296
-0.00013668599731684073   0.0   -0.00029547387732510296
2.5288515212393242e-05   1.1953837227704305e-05   -1.8344054106423754e-05
2.5288515212393242e-05   1.1953837227704305e-05   -1.8344054106423754e-05
2.5288515212393242e-05   1.1953837227704305e-05   -1.8344054106423754e-05
2.5288515212393242e-05   1.1953837227704305e-05   -1.8344054106423754e-05
2.8965073730170543e-05   0.0   -0.0002820216013778979
2.8965073730170543e-05   0.0   -0.0002820216013778979
2.8965073730170543e-05   0.0   -0.0002820216013778979
2.8965073730170543e-05   0.0   -0.0002820216013778979
-0.00013393599132983965   1.9848127152023438e-05   -2.2428702569095033e-05
-0.00013393599132983965   1.9848127152023438e-05   -2.2428702569095033e-05
-0.00013393599132983965   1.9848127152023438e-05   -2.2428702569095033e-05
-0.00013393599132983965   1.9848127152023438e-05   -2.2428702569095033e-05
-5.3860461793334986e-05   1.1210229956003806e-05   -0.00015070518014565756
-5.3860461793334986e-05   1.1210229956003806e-05   -0.00015070518014565756
-5.3860461793334986e-05   1.1210229956003806e-05   -0.00015070518014565756
-5.3860461793334986e-05   1.1210229956003806e-05   -0.00015070518014565756
1.9127042894884017e-05   0.0   -0.00028368795808050677
1.9127042894884017e-05   0.0   -0.00028368795808050677
1.9127042894884017e-05   0.0   -0.00028368795808050677
1.9127042894884017e-05   0.0   -0.00028368795808050677
0.00019741604463197163   -2.315444105218577e-05   -4.3228648333865083e-07
0.00019741604463197163   -2.315444105218577e-05   -4.3228648333865083e-07
0.00019741604463197163   -2.315444105218577e-05   -4.3228648333865083e-07
0.00019741604463197163   -2.315444105218577e-05   -4.3228648333865083e-07
0.00019765807827835463   0.0   -0.00029919563628443203
0.00019765807827835463   0.0   -0.00029919563628443203
0.00019765807827835463   0.0   -0.00029919563628443203
0.00019765807827835463   0.0   -0.00029919563628443203
2.2576855971261894e-05   -1.7479166707552154e-05   3.0939009185871136e-06
2.2576855971261894e-05   -1.7479166707552154e-05   3.0939009185871136e-06
2.2576855971261894e-05   -1.7479166707552154e-05   3.0939009185871136e-06
2.2576855971261894e-05   -1.7479166707552154e-05   3.0939009185871136e-06
0.00010839256058661932   -1.2923065169937695e-05   -0.00014266593436291044
0.00010839256058661932   -1.2923065169937695e-05   -0.00014266593436291044
0.00010839256058661932   -1.2923065169937695e-05   -0.00014266593436291044
0.00010839256058661932   -1.2923065169937695e-05   -0.00014266593436291044
2.2576855971261894e-05   0.0   -0.00028870813625990076
2.2576855971261894e-05   0.0   -0.00028870813625990076
2.2576855971261894e-05   0.0   -0.00028870813625990076
2.2576855971261894e-05   0.0   -0.00028870813625990076
0.00019765807827835463   -1.7479166707552154e-05   -7.393599105944178e-06
0.00019765807827835463   -1.7479166707552154e-05   -7.393599105944178e-06
0.00019765807827835463   -1.7479166707552154e-05   -7.393599105944178e-06
0.00019765807827835463   -1.7479166707552154e-05   -7.393599105944178e-06
0.00019671759870255358   0.0   -0.00029492245463564633
0.00019671759870255358   0.0   -0.00029492245463564633
0.00019671759870255358   0.0   -0.00029492245463564633
0.00019671759870255358   0.0   -0.00029492245463564633
2.5288515212393242e-05   -1.1034799411943207e-05   -2.586435838213168e-06
2.5288515212393242e-05   -1.1034799411943207e-05   -2.586435838213168e-06
2.5288515212393242e-05   -1.1034799411943207e-05   -2.586435838213168e-06
2.5288515212393242e-05   -1.1034799411943207e-05   -2.586435838213168e-06
0.00010964722733690774   -5.178598646454616e-06   -0.0001466980098383637
0.00010964722733690774   -5.178598646454616e-06   -0.0001466980098383637
0.00010964722733690774   -5.178598646454616e-06   -0.0001466980098383637
0.00010964722733690774   -5.178598646454616e-06   -0.0001466980098383637
2.528851521239322e-05   0.0   -0.00028830157498848014
2.528851521239322e-05   0.0   -0.00028830157498848014
2.528851521239322e-05   0.0   -0.00028830157498848014
2.528851521239322e-05   0.0   -0.00028830157498848014
0.00019671759870255358   -1.1034799411943207e-05   -9.207315485379149e-06
0.00019671759870255358   -1.1034799411943207e-05   -9.207315485379149e-06
0.00019671759870255358   -1.1034799411943207e-05   -9.207315485379149e-06
0.00019671759870255358   -1.1034799411943207e-05   -9.207315485379149e-06
0.00020043716404873776   0.0   -0.00028344317189642437
0.00020043716404873776   0.0   -0.00028344317189642437
0.00020043716404873776   0.0   -0.00028344317189642437
0.00020043716404873776   0.0   -0.00028344317189642437
2.896507373017059e-05   -2.369284197543324e-06   3.7652158197135226e-06
2.896507373017059e-05   -2.369284197543324e-06   3.7652158197135226e-06
2.896507373017059e-05   -2.369284197543324e-06   3.7652158197135226e-06
2.896507373017059e-05   -2.369284197543324e-06   3.7652158197135226e-06
0.00011286283963056542   4.048669243379992e-06   -0.0001399151660788317
0.00011286283963056542   4.048669243379992e-06   -0.0001399151660788317
0.00011286283963056542   4.048669243379992e-06   -0.0001399151660788317
0.00011286283963056542   4.048669243379992e-06   -0.0001399151660788317
0.00019741604463197163   0.0   -0.00029758062271181823
0.00019741604463197163   0.0   -0.00029758062271181823
0.00019741604463197163   0.0   -0.00029758062271181823
0.00019741604463197163   0.0   -0.00029758062271181823
0.0004451185579856027   -5.862306914421775e-05   8.008305805770524e-05
0.0004451185579856027   -5.862306914421775e-05   8.008305805770524e-05
0.0004451185579856027   -5.862306914421775e-05   8.008305805770524e-05
0.0004451185579856027   -5.862306914421775e-05   8.008305805770524e-05
0.0004178965685776743   0.0   -0.00032915752254075167
0.0004178965685776743   0.0   -0.00032915752254075167
0.0004178965685776743   0.0   -0.00032915752254075167
0.0004178965685776743   0.0   -0.00032915752254075167
0.00019765807827835463   -4.993647709386603e-05   6.786851421443406e-05
0.00019765807827835463   -4.993647709386603e-05   6.786851421443406e-05
0.00019765807827835463   -4.993647709386603e-05   6.786851421443406e-05
0.00019765807827835463   -4.993647709386603e-05   6.786851421443406e-05
0.000307656306604823   -2.631408319077788e-05   -0.00012963530267153257
0.000307656306604823   -2.631408319077788e-05   -0.00012963530267153257
0.000307656306604823   -2.631408319077788e-05   -0.00012963530267153257
0.000307656306604823   -2.631408319077788e-05   -0.00012963530267153257
0.00019765807827835447   0.0   -0.00029919563628443176
0.00019765807827835447   0.0   -0.00029919563628443176
0.00019765807827835447   0.0   -0.00029919563628443176
0.00019765807827835447   0.0   -0.00029919563628443176
0.00041789656857767286   -4.9936477093865924e-05   3.7906627958114204e-05
0.00041789656857767286   -4.9936477093865924e-05   3.7906627958114204e-05
0.00041789656857767286   -4.9936477093865924e-05   3.7906627958114204e-05
0.00041789656857767286   -4.9936477093865924e-05   3.7906627958114204e-05
0.00040530098964523624   0.0   -0.00032231312775592185
0.00040530098964523624   0.0   -0.00032231312775592185
0.00040530098964523624   0.0   -0.00032231312775592185
0.00040530098964523624   0.0   -0.00032231312775592185
0.00019671759870255358   -4.565112186712594e-05   5.271653026882463e-05
0.00019671759870255358   -4.565112186712594e-05   5.271653026882463e-05
0.00019671759870255358   -4.565112186712594e-05   5.271653026882463e-05
0.00019671759870255358   -4.565112186712594e-05   5.271653026882463e-05
0.00030147953396179525   -1.9264576226241537e-05   -0.0001377186225477753
0.00030147953396179525   -1.9264576226241537e-05   -0.0001377186225477753
0.00030147953396179525   -1.9264576226241537e-05   -0.0001377186225477753
0.00030147953396179525   -1.9264576226241537e-05   -0.0001377186225477753
0.00019671759870255358   0.0   -0.00029492245463564633
0.00019671759870255358   0.0   -0.00029492245463564633
0.00019671759870255358   0.0   -0.00029492245463564633
0.00019671759870255358   0.0   -0.00029492245463564633
0.00040530098964523483   -4.5651121867125726e-05   2.5325857148549057e-05
0.00040530098964523483   -4.5651121867125726e-05   2.5325857148549057e-05
0.00040530098964523483   -4.5651121867125726e-05   2.5325857148549057e-05
0.00040530098964523483   -4.5651121867125726e-05   2.5325857148549057e-05
0.00038661537334422764   0.0   -0.00030477246643162556
0.00038661537334422764   0.0   -0.00030477246643162556
0.00038661537334422764   0.0   -0.00030477246643162556
0.00038661537334422764   0.0   -0.00030477246643162556
0.00020043716404873776   -3.554882422533614e-05   2.6853843596059783e-05
0.00020043716404873776   -3.554882422533614e-05   2.6853843596059783e-05
0.00020043716404873776   -3.554882422533614e-05   2.6853843596059783e-05
0.00020043716404873776   -3.554882422533614e-05   2.6853843596059783e-05
0.0002916664860233909   -8.208343163316502e-06   -0.00014159931499890715
0.0002916664860233909   -8.208343163316502e-06   -0.00014159931499890715
0.0002916664860233909   -8.208343163316502e-06   -0.00014159931499890715
0.0002916664860233909   -8.208343163316502e-06   -0.00014159931499890715
-0.0004356807569076116   5.5670864875810686e-05   -0.00028511349542180545