<?xml version="1.0"?> 
<VTKFile type="UnstructuredGrid"> 
   <UnstructuredGrid> 
      <Piece NumberOfPoints="6000"  NumberOfCells="1500">  
          <Points>  
             <DataArray type="Float64" NumberOfComponents="3" format="ascii">   
-500.0   0.0   0.0
-450.0   0.0   0.0
-500.0   30.0   0.0
-500.0   0.0   16.666666666666668
-450.0   0.0   0.0
-450.0   30.0   0.0
-500.0   30.0   0.0
-450.0   30.0   16.666666666666668
-500.0   0.0   16.666666666666668
-500.0   30.0   16.666666666666668
-450.0   30.0   16.666666666666668
-500.0   30.0   0.0
-500.0   0.0   16.666666666666668
-450.0   30.0   16.666666666666668
-450.0   0.0   16.666666666666668
-450.0   0.0   0.0
-500.0   0.0   16.666666666666668
-450.0   30.0   16.666666666666668
-450.0   0.0   0.0
-500.0   30.0   0.0
-500.0   0.0   16.666666666666668
-450.0   0.0   16.666666666666668
-500.0   30.0   16.666666666666668
-500.0   0.0   33.333333333333336
-450.0   0.0   16.666666666666668
-450.0   30.0   16.666666666666668
-500.0   30.0   16.666666666666668
-450.0   30.0   33.333333333333336
-500.0   0.0   33.333333333333336
-500.0   30.0   33.333333333333336
-450.0   30.0   33.333333333333336
-500.0   30.0   16.666666666666668
-500.0   0.0   33.333333333333336
-450.0   30.0   33.333333333333336
-450.0   0.0   33.333333333333336
-450.0   0.0   16.666666666666668
-500.0   0.0   33.333333333333336
-450.0   30.0   33.333333333333336
-450.0   0.0   16.666666666666668
-500.0   30.0   16.666666666666668
-500.0   0.0   33.333333333333336
-450.0   0.0   33.333333333333336
-500.0   30.0   33.333333333333336
-500.0   0.0   50.0
-450.0   0.0   33.333333333333336
-450.0   30.0   33.333333333333336
-500.0   30.0   33.333333333333336
-450.0   30.0   50.0
-500.0   0.0   50.0
-500.0   30.0   50.0
-450.0   30.0   50.0
-500.0   30.0   33.333333333333336
-500.0   0.0   50.0
-450.0   30.0   50.0
-450.0   0.0   50.0
-450.0   0.0   33.333333333333336
-500.0   0.0   50.0
-450.0   30.0   50.0
-450.0   0.0   33.333333333333336
-500.0   30.0   33.333333333333336
-500.0   30.0   0.0
-450.0   30.0   0.0
-500.0   60.0   0.0
-500.0   30.0   16.666666666666668
-450.0   30.0   0.0
-450.0   60.0   0.0
-500.0   60.0   0.0
-450.0   60.0   16.666666666666668
-500.0   30.0   16.666666666666668
-500.0   60.0   16.666666666666668
-450.0   60.0   16.666666666666668
-500.0   60.0   0.0
-500.0   30.0   16.666666666666668
-450.0   60.0   16.666666666666668
-450.0   30.0   16.666666666666668
-450.0   30.0   0.0
-500.0   30.0   16.666666666666668
-450.0   60.0   16.666666666666668
-450.0   30.0   0.0
-500.0   60.0   0.0
-500.0   30.0   16.666666666666668
-450.0   30.0   16.666666666666668
-500.0   60.0   16.666666666666668
-500.0   30.0   33.333333333333336
-450.0   30.0   16.666666666666668
-450.0   60.0   16.666666666666668
-500.0   60.0   16.666666666666668
-450.0   60.0   33.333333333333336
-500.0   30.0   33.333333333333336
-500.0   60.0   33.333333333333336
-450.0   60.0   33.333333333333336
-500.0   60.0   16.666666666666668
-500.0   30.0   33.333333333333336
-450.0   60.0   33.333333333333336
-450.0   30.0   33.333333333333336
-450.0   30.0   16.666666666666668
-500.0   30.0   33.333333333333336
-450.0   60.0   33.333333333333336
-450.0   30.0   16.666666666666668
-500.0   60.0   16.666666666666668
-500.0   30.0   33.333333333333336
-450.0   30.0   33.333333333333336
-500.0   60.0   33.333333333333336
-500.0   30.0   50.0
-450.0   30.0   33.333333333333336
-450.0   60.0   33.333333333333336
-500.0   60.0   33.333333333333336
-450.0   60.0   50.0
-500.0   30.0   50.0
-500.0   60.0   50.0
-450.0   60.0   50.0
-500.0   60.0   33.333333333333336
-500.0   30.0   50.0
-450.0   60.0   50.0
-450.0   30.0   50.0
-450.0   30.0   33.333333333333336
-500.0   30.0   50.0
-450.0   60.0   50.0
-450.0   30.0   33.333333333333336
-500.0   60.0   33.333333333333336
-500.0   60.0   0.0
-450.0   60.0   0.0
-500.0   90.0   0.0
-500.0   60.0   16.666666666666668
-450.0   60.0   0.0
-450.0   90.0   0.0
-500.0   90.0   0.0
-450.0   90.0   16.666666666666668
-500.0   60.0   16.666666666666668
-500.0   90.0   16.666666666666668
-450.0   90.0   16.666666666666668
-500.0   90.0   0.0
-500.0   60.0   16.666666666666668
-450.0   90.0   16.666666666666668
-450.0   60.0   16.666666666666668
-450.0   60.0   0.0
-500.0   60.0   16.666666666666668
-450.0   90.0   16.666666666666668
-450.0   60.0   0.0
-500.0   90.0   0.0
-500.0   60.0   16.666666666666668
-450.0   60.0   16.666666666666668
-500.0   90.0   16.666666666666668
-500.0   60.0   33.333333333333336
-450.0   60.0   16.666666666666668
-450.0   90.0   16.666666666666668
-500.0   90.0   16.666666666666668
-450.0   90.0   33.333333333333336
-500.0   60.0   33.333333333333336
-500.0   90.0   33.333333333333336
-450.0   90.0   33.333333333333336
-500.0   90.0   16.666666666666668
-500.0   60.0   33.333333333333336
-450.0   90.0   33.333333333333336
-450.0   60.0   33.333333333333336
-450.0   60.0   16.666666666666668
-500.0   60.0   33.333333333333336
-450.0   90.0   33.333333333333336
-450.0   60.0   16.666666666666668
-500.0   90.0   16.666666666666668
-500.0   60.0   33.333333333333336
-450.0   60.0   33.333333333333336
-500.0   90.0   33.333333333333336
-500.0   60.0   50.0
-450.0   60.0   33.333333333333336
-450.0   90.0   33.333333333333336
-500.0   90.0   33.333333333333336
-450.0   90.0   50.0
-500.0   60.0   50.0
-500.0   90.0   50.0
-450.0   90.0   50.0
-500.0   90.0   33.333333333333336
-500.0   60.0   50.0
-450.0   90.0   50.0
-450.0   60.0   50.0
-450.0   60.0   33.333333333333336
-500.0   60.0   50.0
-450.0   90.0   50.0
-450.0   60.0   33.333333333333336
-500.0   90.0   33.333333333333336
-500.0   90.0   0.0
-450.0   90.0   0.0
-500.0   120.0   0.0
-500.0   90.0   16.666666666666668
-450.0   90.0   0.0
-450.0   120.0   0.0
-500.0   120.0   0.0
-450.0   120.0   16.666666666666668
-500.0   90.0   16.666666666666668
-500.0   120.0   16.666666666666668
-450.0   120.0   16.666666666666668
-500.0   120.0   0.0
-500.0   90.0   16.666666666666668
-450.0   120.0   16.666666666666668
-450.0   90.0   16.666666666666668
-450.0   90.0   0.0
-500.0   90.0   16.666666666666668
-450.0   120.0   16.666666666666668
-450.0   90.0   0.0
-500.0   120.0   0.0
-500.0   90.0   16.666666666666668
-450.0   90.0   16.666666666666668
-500.0   120.0   16.666666666666668
-500.0   90.0   33.333333333333336
-450.0   90.0   16.666666666666668
-450.0   120.0   16.666666666666668
-500.0   120.0   16.666666666666668
-450.0   120.0   33.333333333333336
-500.0   90.0   33.333333333333336
-500.0   120.0   33.333333333333336
-450.0   120.0   33.333333333333336
-500.0   120.0   16.666666666666668
-500.0   90.0   33.333333333333336
-450.0   120.0   33.333333333333336
-450.0   90.0   33.333333333333336
-450.0   90.0   16.666666666666668
-500.0   90.0   33.333333333333336
-450.0   120.0   33.333333333333336
-450.0   90.0   16.666666666666668
-500.0   120.0   16.666666666666668
-500.0   90.0   33.333333333333336
-450.0   90.0   33.333333333333336
-500.0   120.0   33.333333333333336
-500.0   90.0   50.0
-450.0   90.0   33.333333333333336
-450.0   120.0   33.333333333333336
-500.0   120.0   33.333333333333336
-450.0   120.0   50.0
-500.0   90.0   50.0
-500.0   120.0   50.0
-450.0   120.0   50.0
-500.0   120.0   33.333333333333336
-500.0   90.0   50.0
-450.0   120.0   50.0
-450.0   90.0   50.0
-450.0   90.0   33.333333333333336
-500.0   90.0   50.0
-450.0   120.0   50.0
-450.0   90.0   33.333333333333336
-500.0   120.0   33.333333333333336
-500.0   120.0   0.0
-450.0   120.0   0.0
-500.0   150.0   0.0
-500.0   120.0   16.666666666666668
-450.0   120.0   0.0
-450.0   150.0   0.0
-500.0   150.0   0.0
-450.0   150.0   16.666666666666668
-500.0   120.0   16.666666666666668
-500.0   150.0   16.666666666666668
-450.0   150.0   16.666666666666668
-500.0   150.0   0.0
-500.0   120.0   16.666666666666668
-450.0   150.0   16.666666666666668
-450.0   120.0   16.666666666666668
-450.0   120.0   0.0
-500.0   120.0   16.666666666666668
-450.0   150.0   16.666666666666668
-450.0   120.0   0.0
-500.0   150.0   0.0
-500.0   120.0   16.666666666666668
-450.0   120.0   16.666666666666668
-500.0   150.0   16.666666666666668
-500.0   120.0   33.333333333333336
-450.0   120.0   16.666666666666668
-450.0   150.0   16.666666666666668
-500.0   150.0   16.666666666666668
-450.0   150.0   33.333333333333336
-500.0   120.0   33.333333333333336
-500.0   150.0   33.333333333333336
-450.0   150.0   33.333333333333336
-500.0   150.0   16.666666666666668
-500.0   120.0   33.333333333333336
-450.0   150.0   33.333333333333336
-450.0   120.0   33.333333333333336
-450.0   120.0   16.666666666666668
-500.0   120.0   33.333333333333336
-450.0   150.0   33.333333333333336
-450.0   120.0   16.666666666666668
-500.0   150.0   16.666666666666668
-500.0   120.0   33.333333333333336
-450.0   120.0   33.333333333333336
-500.0   150.0   33.333333333333336
-500.0   120.0   50.0
-450.0   120.0   33.333333333333336
-450.0   150.0   33.333333333333336
-500.0   150.0   33.333333333333336
-450.0   150.0   50.0
-500.0   120.0   50.0
-500.0   150.0   50.0
-450.0   150.0   50.0
-500.0   150.0   33.333333333333336
-500.0   120.0   50.0
-450.0   150.0   50.0
-450.0   120.0   50.0
-450.0   120.0   33.333333333333336
-500.0   120.0   50.0
-450.0   150.0   50.0
-450.0   120.0   33.333333333333336
-500.0   150.0   33.333333333333336
-450.0   0.0   0.0
-400.0   0.0   0.0
-450.0   30.0   0.0
-450.0   0.0   16.666666666666668
-400.0   0.0   0.0
-400.0   30.0   0.0
-450.0   30.0   0.0
-400.0   30.0   16.666666666666668
-450.0   0.0   16.666666666666668
-450.0   30.0   16.666666666666668
-400.0   30.0   16.666666666666668
-450.0   30.0   0.0
-450.0   0.0   16.666666666666668
-400.0   30.0   16.666666666666668
-400.0   0.0   16.666666666666668
-400.0   0.0   0.0
-450.0   0.0   16.666666666666668
-400.0   30.0   16.666666666666668
-400.0   0.0   0.0
-450.0   30.0   0.0
-450.0   0.0   16.666666666666668
-400.0   0.0   16.666666666666668
-450.0   30.0   16.666666666666668
[...]
          <PointData>  
             <DataArray type="Float64" NumberOfComponents="3" Name="Strains" format="ascii">   
-6.308032811912498e-05   0.0   -4.14868802866512e-05
-6.308032811912498e-05   0.0   -4.14868802866512e-05
-6.308032811912498e-05   0.0   -4.14868802866512e-05
-6.308032811912498e-05   0.0   -4.14868802866512e-05
-4.013061422964666e-05   6.976526895806264e-06   9.485589999629957e-07
-4.013061422964666e-05   6.976526895806264e-06   9.485589999629957e-07
-4.013061422964666e-05   6.976526895806264e-06   9.485589999629957e-07
-4.013061422964666e-05   6.976526895806264e-06   9.485589999629957e-07
-3.933111155235578e-05   0.0   -3.916690832647998e-05
-3.933111155235578e-05   0.0   -3.916690832647998e-05
-3.933111155235578e-05   0.0   -3.916690832647998e-05
-3.933111155235578e-05   0.0   -3.916690832647998e-05
-6.600931584814851e-05   8.377704899691682e-06   2.70142560026388e-07
-6.600931584814851e-05   8.377704899691682e-06   2.70142560026388e-07
-6.600931584814851e-05   8.377704899691682e-06   2.70142560026388e-07
-6.600931584814851e-05   8.377704899691682e-06   2.70142560026388e-07
-5.120571983574029e-05   1.933309966809344e-06   -2.053588050092453e-05
-5.120571983574029e-05   1.933309966809344e-06   -2.053588050092453e-05
-5.120571983574029e-05   1.933309966809344e-06   -2.053588050092453e-05
-5.120571983574029e-05   1.933309966809344e-06   -2.053588050092453e-05
-6.600931584814862e-05   0.0   -4.4193531266295e-05
-6.600931584814862e-05   0.0   -4.4193531266295e-05
-6.600931584814862e-05   0.0   -4.4193531266295e-05
-6.600931584814862e-05   0.0   -4.4193531266295e-05
-3.933111155235578e-05   8.377704899691695e-06   5.296765499841424e-06
-3.933111155235578e-05   8.377704899691695e-06   5.296765499841424e-06
-3.933111155235578e-05   8.377704899691695e-06   5.296765499841424e-06
-3.933111155235578e-05   8.377704899691695e-06   5.296765499841424e-06
-3.9435707561972356e-05   0.0   -4.012387426150059e-05
-3.9435707561972356e-05   0.0   -4.012387426150059e-05
-3.9435707561972356e-05   0.0   -4.012387426150059e-05
-3.9435707561972356e-05   0.0   -4.012387426150059e-05
-6.806341169408842e-05   8.97695060833298e-06   2.202795593693238e-06
-6.806341169408842e-05   8.97695060833298e-06   2.202795593693238e-06
-6.806341169408842e-05   8.97695060833298e-06   2.202795593693238e-06
-6.806341169408842e-05   8.97695060833298e-06   2.202795593693238e-06
-5.27225117050604e-05   3.391380837328675e-06   -2.0014029192084197e-05
-5.27225117050604e-05   3.391380837328675e-06   -2.0014029192084197e-05
-5.27225117050604e-05   3.391380837328675e-06   -2.0014029192084197e-05
-5.27225117050604e-05   3.391380837328675e-06   -2.0014029192084197e-05
-6.806341169408854e-05   0.0   -4.5510044626500394e-05
-6.806341169408854e-05   0.0   -4.5510044626500394e-05
-6.806341169408854e-05   0.0   -4.5510044626500394e-05
-6.806341169408854e-05   0.0   -4.5510044626500394e-05
-3.9435707561972356e-05   8.976950608333007e-06   7.5889659586930475e-06
-3.9435707561972356e-05   8.976950608333007e-06   7.5889659586930475e-06
-3.9435707561972356e-05   8.976950608333007e-06   7.5889659586930475e-06
-3.9435707561972356e-05   8.976950608333007e-06   7.5889659586930475e-06
-3.940784959683488e-05   0.0   -4.0370773676896096e-05
-3.940784959683488e-05   0.0   -4.0370773676896096e-05
-3.940784959683488e-05   0.0   -4.0370773676896096e-05
-3.940784959683488e-05   0.0   -4.0370773676896096e-05
-7.249477659330584e-05   1.0231278383703897e-05   8.635337620333357e-06
-7.249477659330584e-05   1.0231278383703897e-05   8.635337620333357e-06
-7.249477659330584e-05   1.0231278383703897e-05   8.635337620333357e-06
-7.249477659330584e-05   1.0231278383703897e-05   8.635337620333357e-06
-5.373563064546162e-05   4.282725791336913e-06   -1.9060774070653472e-05
-5.373563064546162e-05   4.282725791336913e-06   -1.9060774070653472e-05
-5.373563064546162e-05   4.282725791336913e-06   -1.9060774070653472e-05
-5.373563064546162e-05   4.282725791336913e-06   -1.9060774070653472e-05
-4.0130614229646736e-05   0.0   -3.730096414916744e-05
-4.0130614229646736e-05   0.0   -3.730096414916744e-05
-4.0130614229646736e-05   0.0   -3.730096414916744e-05
-4.0130614229646736e-05   0.0   -3.730096414916744e-05
-1.8283012766766544e-05   2.5564845813159313e-06   6.455957044224169e-07
-1.8283012766766544e-05   2.5564845813159313e-06   6.455957044224169e-07
-1.8283012766766544e-05   2.5564845813159313e-06   6.455957044224169e-07
-1.8283012766766544e-05   2.5564845813159313e-06   6.455957044224169e-07
-1.7578178744414764e-05   0.0   -3.698083739319562e-05
-1.7578178744414764e-05   0.0   -3.698083739319562e-05
-1.7578178744414764e-05   0.0   -3.698083739319562e-05
-1.7578178744414764e-05   0.0   -3.698083739319562e-05
-3.933111155235578e-05   3.64345155547394e-06   -2.912020313244971e-06
-3.933111155235578e-05   3.64345155547394e-06   -2.912020313244971e-06
-3.933111155235578e-05   3.64345155547394e-06   -2.912020313244971e-06
-3.933111155235578e-05   3.64345155547394e-06   -2.912020313244971e-06
-2.88543964870307e-05   2.66772296643175e-07   -1.8347204533488174e-05
-2.88543964870307e-05   2.66772296643175e-07   -1.8347204533488174e-05
-2.88543964870307e-05   2.66772296643175e-07   -1.8347204533488174e-05
-2.88543964870307e-05   2.66772296643175e-07   -1.8347204533488174e-05
-3.9331111552355745e-05   0.0   -3.916690832647995e-05
-3.9331111552355745e-05   0.0   -3.916690832647995e-05
-3.9331111552355745e-05   0.0   -3.916690832647995e-05
-3.9331111552355745e-05   0.0   -3.916690832647995e-05
-1.7578178744414764e-05   3.64345155547394e-06   -7.259493799606029e-07
-1.7578178744414764e-05   3.64345155547394e-06   -7.259493799606029e-07
-1.7578178744414764e-05   3.64345155547394e-06   -7.259493799606029e-07
-1.7578178744414764e-05   3.64345155547394e-06   -7.259493799606029e-07
-1.7179736883791883e-05   0.0   -3.7443738716745185e-05
-1.7179736883791883e-05   0.0   -3.7443738716745185e-05
-1.7179736883791883e-05   0.0   -3.7443738716745185e-05
-1.7179736883791883e-05   0.0   -3.7443738716745185e-05
-3.9435707561972356e-05   4.466892574592343e-06   -3.0305897978664736e-06
-3.9435707561972356e-05   4.466892574592343e-06   -3.0305897978664736e-06
-3.9435707561972356e-05   4.466892574592343e-06   -3.0305897978664736e-06
-3.9435707561972356e-05   4.466892574592343e-06   -3.0305897978664736e-06
-2.8255424218073775e-05   1.4359746747789922e-06   -1.984584463114261e-05
-2.8255424218073775e-05   1.4359746747789922e-06   -1.984584463114261e-05
-2.8255424218073775e-05   1.4359746747789922e-06   -1.984584463114261e-05
-2.8255424218073775e-05   1.4359746747789922e-06   -1.984584463114261e-05
-3.9435707561972356e-05   0.0   -4.012387426150059e-05
-3.9435707561972356e-05   0.0   -4.012387426150059e-05
-3.9435707561972356e-05   0.0   -4.012387426150059e-05
-3.9435707561972356e-05   0.0   -4.012387426150059e-05
-1.7179736883791883e-05   4.466892574592343e-06   -3.5045425311107e-07
-1.7179736883791883e-05   4.466892574592343e-06   -3.5045425311107e-07
-1.7179736883791883e-05   4.466892574592343e-06   -3.5045425311107e-07
-1.7179736883791883e-05   4.466892574592343e-06   -3.5045425311107e-07
-1.6815879558098495e-05   0.0   -3.725122304629081e-05
-1.6815879558098495e-05   0.0   -3.725122304629081e-05
-1.6815879558098495e-05   0.0   -3.725122304629081e-05
-1.6815879558098495e-05   0.0   -3.725122304629081e-05
-3.9407849596834776e-05   5.199251051008746e-06   -2.7174902790021106e-06
-3.9407849596834776e-05   5.199251051008746e-06   -2.7174902790021106e-06
-3.9407849596834776e-05   5.199251051008746e-06   -2.7174902790021106e-06
-3.9407849596834776e-05   5.199251051008746e-06   -2.7174902790021106e-06
-2.8125793560035415e-05   2.3938760126747963e-06   -1.983769198400081e-05
-2.8125793560035415e-05   2.3938760126747963e-06   -1.983769198400081e-05
-2.8125793560035415e-05   2.3938760126747963e-06   -1.983769198400081e-05
-2.8125793560035415e-05   2.3938760126747963e-06   -1.983769198400081e-05
-1.8283012766766574e-05   0.0   -3.5767073400377876e-05
-1.8283012766766574e-05   0.0   -3.5767073400377876e-05
-1.8283012766766574e-05   0.0   -3.5767073400377876e-05
-1.8283012766766574e-05   0.0   -3.5767073400377876e-05
2.353461134120933e-06   -3.2920251855942734e-07   -1.570471743367648e-06
2.353461134120933e-06   -3.2920251855942734e-07   -1.570471743367648e-06
2.353461134120933e-06   -3.2920251855942734e-07   -1.570471743367648e-06
2.353461134120933e-06   -3.2920251855942734e-07   -1.570471743367648e-06
2.806287373370582e-06   0.0   -3.6592835923826515e-05
2.806287373370582e-06   0.0   -3.6592835923826515e-05
2.806287373370582e-06   0.0   -3.6592835923826515e-05
2.806287373370582e-06   0.0   -3.6592835923826515e-05
-1.7578178744414764e-05   6.466691156149662e-07   -3.0067271968866965e-06
-1.7578178744414764e-05   6.466691156149662e-07   -3.0067271968866965e-06
-1.7578178744414764e-05   6.466691156149662e-07   -3.0067271968866965e-06
-1.7578178744414764e-05   6.466691156149662e-07   -3.0067271968866965e-06
-7.738362696697979e-06   -6.881354362073008e-07   -1.8605537878654576e-05
-7.738362696697979e-06   -6.881354362073008e-07   -1.8605537878654576e-05
-7.738362696697979e-06   -6.881354362073008e-07   -1.8605537878654576e-05
-7.738362696697979e-06   -6.881354362073008e-07   -1.8605537878654576e-05
-1.7578178744414764e-05   0.0   -3.698083739319562e-05
-1.7578178744414764e-05   0.0   -3.698083739319562e-05
-1.7578178744414764e-05   0.0   -3.698083739319562e-05
-1.7578178744414764e-05   0.0   -3.698083739319562e-05
2.8062873733705866e-06   6.46669115614973e-07   -2.6187257275177115e-06
2.8062873733705866e-06   6.46669115614973e-07   -2.6187257275177115e-06
2.8062873733705866e-06   6.46669115614973e-07   -2.6187257275177115e-06
2.8062873733705866e-06   6.46669115614973e-07   -2.6187257275177115e-06
3.1645225062731915e-06   0.0   -3.653999865922488e-05
3.1645225062731915e-06   0.0   -3.653999865922488e-05
3.1645225062731915e-06   0.0   -3.653999865922488e-05
3.1645225062731915e-06   0.0   -3.653999865922488e-05
-1.7179736883791852e-05   1.506233429200403e-06   -3.536639733303388e-06
-1.7179736883791852e-05   1.506233429200403e-06   -3.536639733303388e-06
-1.7179736883791852e-05   1.506233429200403e-06   -3.536639733303388e-06
-1.7179736883791852e-05   1.506233429200403e-06   -3.536639733303388e-06
-7.206828119070783e-06   3.673656116422305e-07   -1.947483365063697e-05
-7.206828119070783e-06   3.673656116422305e-07   -1.947483365063697e-05
-7.206828119070783e-06   3.673656116422305e-07   -1.947483365063697e-05
-7.206828119070783e-06   3.673656116422305e-07   -1.947483365063697e-05
-1.7179736883791883e-05   0.0   -3.7443738716745185e-05
-1.7179736883791883e-05   0.0   -3.7443738716745185e-05
-1.7179736883791883e-05   0.0   -3.7443738716745185e-05
-1.7179736883791883e-05   0.0   -3.7443738716745185e-05
3.164522506273197e-06   1.5062334292003962e-06   -2.632899675783151e-06
3.164522506273197e-06   1.5062334292003962e-06   -2.632899675783151e-06
3.164522506273197e-06   1.5062334292003962e-06   -2.632899675783151e-06
3.164522506273197e-06   1.5062334292003962e-06   -2.632899675783151e-06
3.6444300714148434e-06   0.0   -3.575035188804125e-05
3.6444300714148434e-06   0.0   -3.575035188804125e-05
3.6444300714148434e-06   0.0   -3.575035188804125e-05
3.6444300714148434e-06   0.0   -3.575035188804125e-05
-1.681587955809848e-05   2.501451930415876e-06   -3.150706997101903e-06
-1.681587955809848e-05   2.501451930415876e-06   -3.150706997101903e-06
-1.681587955809848e-05   2.501451930415876e-06   -3.150706997101903e-06
-1.681587955809848e-05   2.501451930415876e-06   -3.150706997101903e-06
-6.767653406188505e-06   1.4111556905865628e-06   -1.9243572839720925e-05
-6.767653406188505e-06   1.4111556905865628e-06   -1.9243572839720925e-05
-6.767653406188505e-06   1.4111556905865628e-06   -1.9243572839720925e-05
-6.767653406188505e-06   1.4111556905865628e-06   -1.9243572839720925e-05
2.3534611341209367e-06   0.0   -3.596459491151353e-05
2.3534611341209367e-06   0.0   -3.596459491151353e-05
2.3534611341209367e-06   0.0   -3.596459491151353e-05
2.3534611341209367e-06   0.0   -3.596459491151353e-05
2.475942219273506e-05   -2.90406065317672e-06   -3.6376287239600803e-07
2.475942219273506e-05   -2.90406065317672e-06   -3.6376287239600803e-07
2.475942219273506e-05   -2.90406065317672e-06   -3.6376287239600803e-07
2.475942219273506e-05   -2.90406065317672e-06   -3.6376287239600803e-07
2.481101523705501e-05   0.0   -3.790533273574568e-05
2.481101523705501e-05   0.0   -3.790533273574568e-05
2.481101523705501e-05   0.0   -3.790533273574568e-05
2.481101523705501e-05   0.0   -3.790533273574568e-05
2.8062873733705917e-06   -2.1874946865317328e-06   8.171051564738614e-08
2.8062873733705917e-06   -2.1874946865317328e-06   8.171051564738614e-08
2.8062873733705917e-06   -2.1874946865317328e-06   8.171051564738614e-08
2.8062873733705917e-06   -2.1874946865317328e-06   8.171051564738614e-08
1.3582238185587972e-05   -1.6172815201934569e-06   -1.8220335404517865e-05
1.3582238185587972e-05   -1.6172815201934569e-06   -1.8220335404517865e-05
1.3582238185587972e-05   -1.6172815201934569e-06   -1.8220335404517865e-05
1.3582238185587972e-05   -1.6172815201934569e-06   -1.8220335404517865e-05
2.8062873733705917e-06   0.0   -3.659283592382664e-05
2.8062873733705917e-06   0.0   -3.659283592382664e-05
2.8062873733705917e-06   0.0   -3.659283592382664e-05
2.8062873733705917e-06   0.0   -3.659283592382664e-05
2.481101523705501e-05   -2.1874946865317328e-06   -1.2307862962716574e-06
2.481101523705501e-05   -2.1874946865317328e-06   -1.2307862962716574e-06
2.481101523705501e-05   -2.1874946865317328e-06   -1.2307862962716574e-06
2.481101523705501e-05   -2.1874946865317328e-06   -1.2307862962716574e-06
2.471127403164013e-05   0.0   -3.736411310442011e-05
2.471127403164013e-05   0.0   -3.736411310442011e-05
2.471127403164013e-05   0.0   -3.736411310442011e-05
2.471127403164013e-05   0.0   -3.736411310442011e-05
3.164522506273197e-06   -1.3735240753252596e-06   -6.287461169467266e-07
3.164522506273197e-06   -1.3735240753252596e-06   -6.287461169467266e-07
3.164522506273197e-06   -1.3735240753252596e-06   -6.287461169467266e-07
3.164522506273197e-06   -1.3735240753252596e-06   -6.287461169467266e-07
1.3758780702505362e-05   -6.427309838278892e-07   -1.872431896556541e-05
1.3758780702505362e-05   -6.427309838278892e-07   -1.872431896556541e-05
1.3758780702505362e-05   -6.427309838278892e-07   -1.872431896556541e-05
1.3758780702505362e-05   -6.427309838278892e-07   -1.872431896556541e-05
3.164522506273194e-06   0.0   -3.653999865922491e-05
3.164522506273194e-06   0.0   -3.653999865922491e-05
3.164522506273194e-06   0.0   -3.653999865922491e-05
3.164522506273194e-06   0.0   -3.653999865922491e-05
2.471127403164013e-05   -1.3735240753252596e-06   -1.452860562141884e-06
2.471127403164013e-05   -1.3735240753252596e-06   -1.452860562141884e-06
2.471127403164013e-05   -1.3735240753252596e-06   -1.452860562141884e-06
2.471127403164013e-05   -1.3735240753252596e-06   -1.452860562141884e-06
2.519612265091234e-05   0.0   -3.5918427898397566e-05
2.519612265091234e-05   0.0   -3.5918427898397566e-05
2.519612265091234e-05   0.0   -3.5918427898397566e-05
2.519612265091234e-05   0.0   -3.5918427898397566e-05
3.6444300714148498e-06   -2.801266839270856e-07   1.691357444544957e-07
3.6444300714148498e-06   -2.801266839270856e-07   1.691357444544957e-07
3.6444300714148498e-06   -2.801266839270856e-07   1.691357444544957e-07
3.6444300714148498e-06   -2.801266839270856e-07   1.691357444544957e-07
1.4180322578592757e-05   5.179756340228185e-07   -1.7869546491611944e-05
1.4180322578592757e-05   5.179756340228185e-07   -1.7869546491611944e-05
1.4180322578592757e-05   5.179756340228185e-07   -1.7869546491611944e-05
1.4180322578592757e-05   5.179756340228185e-07   -1.7869546491611944e-05
2.475942219273506e-05   0.0   -3.770703130341957e-05
2.475942219273506e-05   0.0   -3.770703130341957e-05
2.475942219273506e-05   0.0   -3.770703130341957e-05
2.475942219273506e-05   0.0   -3.770703130341957e-05
5.593793887633744e-05   -7.366870710387631e-06   9.837040743018789e-06
5.593793887633744e-05   -7.366870710387631e-06   9.837040743018789e-06
5.593793887633744e-05   -7.366870710387631e-06   9.837040743018789e-06
5.593793887633744e-05   -7.366870710387631e-06   9.837040743018789e-06
5.2544580286261165e-05   0.0   -4.1663755663200014e-05
5.2544580286261165e-05   0.0   -4.1663755663200014e-05
5.2544580286261165e-05   0.0   -4.1663755663200014e-05
5.2544580286261165e-05   0.0   -4.1663755663200014e-05
2.481101523705501e-05   -6.264038212423886e-06   8.317275679597906e-06
2.481101523705501e-05   -6.264038212423886e-06   8.317275679597906e-06
2.481101523705501e-05   -6.264038212423886e-06   8.317275679597906e-06
2.481101523705501e-05   -6.264038212423886e-06   8.317275679597906e-06
3.865200123949811e-05   -3.29727029981704e-06   -1.653109507203802e-05
3.865200123949811e-05   -3.29727029981704e-06   -1.653109507203802e-05
3.865200123949811e-05   -3.29727029981704e-06   -1.653109507203802e-05
3.865200123949811e-05   -3.29727029981704e-06   -1.653109507203802e-05
2.4811015237054985e-05   0.0   -3.790533273574565e-05
2.4811015237054985e-05   0.0   -3.790533273574565e-05
2.4811015237054985e-05   0.0   -3.790533273574565e-05
2.4811015237054985e-05   0.0   -3.790533273574565e-05
5.254458028626098e-05   -6.264038212423859e-06   4.5588527521435765e-06
5.254458028626098e-05   -6.264038212423859e-06   4.5588527521435765e-06
5.254458028626098e-05   -6.264038212423859e-06   4.5588527521435765e-06
5.254458028626098e-05   -6.264038212423859e-06   4.5588527521435765e-06
5.098271232647946e-05   0.0   -4.079761486280807e-05
5.098271232647946e-05   0.0   -4.079761486280807e-05
5.098271232647946e-05   0.0   -4.079761486280807e-05
5.098271232647946e-05   0.0   -4.079761486280807e-05
2.471127403164013e-05   -5.722502930646616e-06   6.421617386978758e-06
2.471127403164013e-05   -5.722502930646616e-06   6.421617386978758e-06
2.471127403164013e-05   -5.722502930646616e-06   6.421617386978758e-06
2.471127403164013e-05   -5.722502930646616e-06   6.421617386978758e-06
3.7896863781767214e-05   -2.4102351058853273e-06   -1.7541726224756465e-05
3.7896863781767214e-05   -2.4102351058853273e-06   -1.7541726224756465e-05
3.7896863781767214e-05   -2.4102351058853273e-06   -1.7541726224756465e-05
3.7896863781767214e-05   -2.4102351058853273e-06   -1.7541726224756465e-05
2.471127403164013e-05   0.0   -3.736411310442011e-05
2.471127403164013e-05   0.0   -3.736411310442011e-05
2.471127403164013e-05   0.0   -3.736411310442011e-05
2.471127403164013e-05   0.0   -3.736411310442011e-05
5.098271232647928e-05   -5.722502930646589e-06   2.9881156285907874e-06
5.098271232647928e-05   -5.722502930646589e-06   2.9881156285907874e-06
5.098271232647928e-05   -5.722502930646589e-06   2.9881156285907874e-06
5.098271232647928e-05   -5.722502930646589e-06   2.9881156285907874e-06
4.865297260384684e-05   0.0   -3.85842097233731e-05
4.865297260384684e-05   0.0   -3.85842097233731e-05
4.865297260384684e-05   0.0   -3.85842097233731e-05
4.865297260384684e-05   0.0   -3.85842097233731e-05
2.519612265091234e-05   -4.442969708292684e-06   3.176322023160075e-06
2.519612265091234e-05   -4.442969708292684e-06   3.176322023160075e-06
2.519612265091234e-05   -4.442969708292684e-06   3.176322023160075e-06
2.519612265091234e-05   -4.442969708292684e-06   3.176322023160075e-06
3.668212331774353e-05   -1.0167471824608937e-06   -1.802274593705763e-05
3.668212331774353e-05   -1.0167471824608937e-06   -1.802274593705763e-05
3.668212331774353e-05   -1.0167471824608937e-06   -1.802274593705763e-05
3.668212331774353e-05   -1.0167471824608937e-06   -1.802274593705763e-05
-5.4666632596671696e-05   6.976526895806237e-06   -3.592633094148585e-05
-5.4666632596671696e-05   6.976526895806237e-06   -3.592633094148585e-05
-5.4666632596671696e-05   6.976526895806237e-06   -3.592633094148585e-05
-5.4666632596671696e-05   6.976526895806237e-06   -3.592633094148585e-05