<?xml version="1.0"?> 
<VTKFile type="UnstructuredGrid"> 
   <UnstructuredGrid> 
      <Piece NumberOfPoints="6000"  NumberOfCells="1500">  
          <Points>  
             <DataArray type="Float64" NumberOfComponents="3" format="ascii">   
-500.0   0.0   0.0
-450.0   0.0   0.0
-500.0   30.0   0.0
-500.0   0.0   16.666666666666668
-450.0   0.0   0.0
-450.0   30.0   0.0
-500.0   30.0   0.0
-450.0   30.0   16.666666666666668
-500.0   0.0   16.666666666666668
-500.0   30.0   16.666666666666668
-450.0   30.0   16.666666666666668
-500.0   30.0   0.0
-500.0   0.0   16.666666666666668
-450.0   30.0   16.666666666666668
-450.0   0.0   16.666666666666668
-450.0   0.0   0.0
-500.0   0.0   16.666666666666668
-450.0   30.0   16.666666666666668
-450.0   0.0   0.0
-500.0   30.0   0.0
-500.0   0.0   16.666666666666668
-450.0   0.0   16.666666666666668
-500.0   30.0   16.666666666666668
-500.0   0.0   33.333333333333336
-450.0   0.0   16.666666666666668
-450.0   30.0   16.666666666666668
-500.0   30.0   16.666666666666668
-450.0   30.0   33.333333333333336
-500.0   0.0   33.333333333333336
-500.0   30.0   33.333333333333336
-450.0   30.0   33.333333333333336
-500.0   30.0   16.666666666666668
-500.0   0.0   33.333333333333336
-450.0   30.0   33.333333333333336
-450.0   0.0   33.333333333333336
-450.0   0.0   16.666666666666668
-500.0   0.0   33.333333333333336
-450.0   30.0   33.333333333333336
-450.0   0.0   16.666666666666668
-500.0   30.0   16.666666666666668
-500.0   0.0   33.333333333333336
-450.0   0.0   33.333333333333336
-500.0   30.0   33.333333333333336
-500.0   0.0   50.0
-450.0   0.0   33.333333333333336
-450.0   30.0   33.333333333333336
-500.0   30.0   33.333333333333336
-450.0   30.0   50.0
-500.0   0.0   50.0
-500.0   30.0   50.0
-450.0   30.0   50.0
-500.0   30.0   33.333333333333336
-500.0   0.0   50.0
-450.0   30.0   50.0
-450.0   0.0   50.0
-450.0   0.0   33.333333333333336
-500.0   0.0   50.0
-450.0   30.0   50.0
-450.0   0.0   33.333333333333336
-500.0   30.0   33.333333333333336
-500.0   30.0   0.0
-450.0   30.0   0.0
-500.0   60.0   0.0
-500.0   30.0   16.666666666666668
-450.0   30.0   0.0
-450.0   60.0   0.0
-500.0   60.0   0.0
-450.0   60.0   16.666666666666668
-500.0   30.0   16.666666666666668
-500.0   60.0   16.666666666666668
-450.0   60.0   16.666666666666668
-500.0   60.0   0.0
-500.0   30.0   16.666666666666668
-450.0   60.0   16.666666666666668
-450.0   30.0   16.666666666666668
-450.0   30.0   0.0
-500.0   30.0   16.666666666666668
-450.0   60.0   16.666666666666668
-450.0   30.0   0.0
-500.0   60.0   0.0
-500.0   30.0   16.666666666666668
-450.0   30.0   16.666666666666668
-500.0   60.0   16.666666666666668
-500.0   30.0   33.333333333333336
-450.0   30.0   16.666666666666668
-450.0   60.0   16.666666666666668
-500.0   60.0   16.666666666666668
-450.0   60.0   33.333333333333336
-500.0   30.0   33.333333333333336
-500.0   60.0   33.333333333333336
-450.0   60.0   33.333333333333336
-500.0   60.0   16.666666666666668
-500.0   30.0   33.333333333333336
-450.0   60.0   33.333333333333336
-450.0   30.0   33.333333333333336
-450.0   30.0   16.666666666666668
-500.0   30.0   33.333333333333336
-450.0   60.0   33.333333333333336
-450.0   30.0   16.666666666666668
-500.0   60.0   16.666666666666668
-500.0   30.0   33.333333333333336
-450.0   30.0   33.333333333333336
-500.0   60.0   33.333333333333336
-500.0   30.0   50.0
-450.0   30.0   33.333333333333336
-450.0   60.0   33.333333333333336
-500.0   60.0   33.333333333333336
-450.0   60.0   50.0
-500.0   30.0   50.0
-500.0   60.0   50.0
-450.0   60.0   50.0
-500.0   60.0   33.333333333333336
-500.0   30.0   50.0
-450.0   60.0   50.0
-450.0   30.0   50.0
-450.0   30.0   33.333333333333336
-500.0   30.0   50.0
-450.0   60.0   50.0
-450.0   30.0   33.333333333333336
-500.0   60.0   33.333333333333336
-500.0   60.0   0.0
-450.0   60.0   0.0
-500.0   90.0   0.0
-500.0   60.0   16.666666666666668
-450.0   60.0   0.0
-450.0   90.0   0.0
-500.0   90.0   0.0
-450.0   90.0   16.666666666666668
-500.0   60.0   16.666666666666668
-500.0   90.0   16.666666666666668
-450.0   90.0   16.666666666666668
-500.0   90.0   0.0
-500.0   60.0   16.666666666666668
-450.0   90.0   16.666666666666668
-450.0   60.0   16.666666666666668
-450.0   60.0   0.0
-500.0   60.0   16.666666666666668
-450.0   90.0   16.666666666666668
-450.0   60.0   0.0
-500.0   90.0   0.0
-500.0   60.0   16.666666666666668
-450.0   60.0   16.666666666666668
-500.0   90.0   16.666666666666668
-500.0   60.0   33.333333333333336
-450.0   60.0   16.666666666666668
-450.0   90.0   16.666666666666668
-500.0   90.0   16.666666666666668
-450.0   90.0   33.333333333333336
-500.0   60.0   33.333333333333336
-500.0   90.0   33.333333333333336
-450.0   90.0   33.333333333333336
-500.0   90.0   16.666666666666668
-500.0   60.0   33.333333333333336
-450.0   90.0   33.333333333333336
-450.0   60.0   33.333333333333336
-450.0   60.0   16.666666666666668
-500.0   60.0   33.333333333333336
-450.0   90.0   33.333333333333336
-450.0   60.0   16.666666666666668
-500.0   90.0   16.666666666666668
-500.0   60.0   33.333333333333336
-450.0   60.0   33.333333333333336
-500.0   90.0   33.333333333333336
-500.0   60.0   50.0
-450.0   60.0   33.333333333333336
-450.0   90.0   33.333333333333336
-500.0   90.0   33.333333333333336
-450.0   90.0   50.0
-500.0   60.0   50.0
-500.0   90.0   50.0
-450.0   90.0   50.0
-500.0   90.0   33.333333333333336
-500.0   60.0   50.0
-450.0   90.0   50.0
-450.0   60.0   50.0
-450.0   60.0   33.333333333333336
-500.0   60.0   50.0
-450.0   90.0   50.0
-450.0   60.0   33.333333333333336
-500.0   90.0   33.333333333333336
-500.0   90.0   0.0
-450.0   90.0   0.0
-500.0   120.0   0.0
-500.0   90.0   16.666666666666668
-450.0   90.0   0.0
-450.0   120.0   0.0
-500.0   120.0   0.0
-450.0   120.0   16.666666666666668
-500.0   90.0   16.666666666666668
-500.0   120.0   16.666666666666668
-450.0   120.0   16.666666666666668
-500.0   120.0   0.0
-500.0   90.0   16.666666666666668
-450.0   120.0   16.666666666666668
-450.0   90.0   16.666666666666668
-450.0   90.0   0.0
-500.0   90.0   16.666666666666668
-450.0   120.0   16.666666666666668
-450.0   90.0   0.0
-500.0   120.0   0.0
-500.0   90.0   16.666666666666668
-450.0   90.0   16.666666666666668
-500.0   120.0   16.666666666666668
-500.0   90.0   33.333333333333336
-450.0   90.0   16.666666666666668
-450.0   120.0   16.666666666666668
-500.0   120.0   16.666666666666668
-450.0   120.0   33.333333333333336
-500.0   90.0   33.333333333333336
-500.0   120.0   33.333333333333336
-450.0   120.0   33.333333333333336
-500.0   120.0   16.666666666666668
-500.0   90.0   33.333333333333336
-450.0   120.0   33.333333333333336
-450.0   90.0   33.333333333333336
-450.0   90.0   16.666666666666668
-500.0   90.0   33.333333333333336
-450.0   120.0   33.333333333333336
-450.0   90.0   16.666666666666668
-500.0   120.0   16.666666666666668
-500.0   90.0   33.333333333333336
-450.0   90.0   33.333333333333336
-500.0   120.0   33.333333333333336
-500.0   90.0   50.0
-450.0   90.0   33.333333333333336
-450.0   120.0   33.333333333333336
-500.0   120.0   33.333333333333336
-450.0   120.0   50.0
-500.0   90.0   50.0
-500.0   120.0   50.0
-450.0   120.0   50.0
-500.0   120.0   33.333333333333336
-500.0   90.0   50.0
-450.0   120.0   50.0
-450.0   90.0   50.0
-450.0   90.0   33.333333333333336
-500.0   90.0   50.0
-450.0   120.0   50.0
-450.0   90.0   33.333333333333336
-500.0   120.0   33.333333333333336
-500.0   120.0   0.0
-450.0   120.0   0.0
-500.0   150.0   0.0
-500.0   120.0   16.666666666666668
-450.0   120.0   0.0
-450.0   150.0   0.0
-500.0   150.0   0.0
-450.0   150.0   16.666666666666668
-500.0   120.0   16.666666666666668
-500.0   150.0   16.666666666666668
-450.0   150.0   16.666666666666668
-500.0   150.0   0.0
-500.0   120.0   16.666666666666668
-450.0   150.0   16.666666666666668
-450.0   120.0   16.666666666666668
-450.0   120.0   0.0
-500.0   120.0   16.666666666666668
-450.0   150.0   16.666666666666668
-450.0   120.0   0.0
-500.0   150.0   0.0
-500.0   120.0   16.666666666666668
-450.0   120.0   16.666666666666668
-500.0   150.0   16.666666666666668
-500.0   120.0   33.333333333333336
-450.0   120.0   16.666666666666668
-450.0   150.0   16.666666666666668
-500.0   150.0   16.666666666666668
-450.0   150.0   33.333333333333336
-500.0   120.0   33.333333333333336
-500.0   150.0   33.333333333333336
-450.0   150.0   33.333333333333336
-500.0   150.0   16.666666666666668
-500.0   120.0   33.333333333333336
-450.0   150.0   33.333333333333336
-450.0   120.0   33.333333333333336
-450.0   120.0   16.666666666666668
-500.0   120.0   33.333333333333336
-450.0   150.0   33.333333333333336
-450.0   120.0   16.666666666666668
-500.0   150.0   16.666666666666668
-500.0   120.0   33.333333333333336
-450.0   120.0   33.333333333333336
-500.0   150.0   33.333333333333336
-500.0   120.0   50.0
-450.0   120.0   33.333333333333336
-450.0   150.0   33.333333333333336
-500.0   150.0   33.333333333333336
-450.0   150.0   50.0
-500.0   120.0   50.0
-500.0   150.0   50.0
-450.0   150.0   50.0
-500.0   150.0   33.333333333333336
-500.0   120.0   50.0
-450.0   150.0   50.0
-450.0   120.0   50.0
-450.0   120.0   33.333333333333336
-500.0   120.0   50.0
-450.0   150.0   50.0
-450.0   120.0   33.333333333333336
-500.0   150.0   33.333333333333336
-450.0   0.0   0.0
-400.0   0.0   0.0
-450.0   30.0   0.0
-450.0   0.0   16.666666666666668
-400.0   0.0   0.0
-400.0   30.0   0.0
-450.0   30.0   0.0
-400.0   30.0   16.666666666666668
-450.0   0.0   16.666666666666668
-450.0   30.0   16.666666666666668
-400.0   30.0   16.666666666666668
-450.0   30.0   0.0
-450.0   0.0   16.666666666666668
-400.0   30.0   16.666666666666668
-400.0   0.0   16.666666666666668
-400.0   0.0   0.0
-450.0   0.0   16.666666666666668
-400.0   30.0   16.666666666666668
-400.0   0.0   0.0
-450.0   30.0   0.0
-450.0   0.0   16.666666666666668
-400.0   0.0   16.666666666666668
-450.0   30.0   16.666666666666668
[...]
          <PointData>  
             <DataArray type="Float64" NumberOfComponents="3" Name="Strains" format="ascii">   
-0.00037601007379040144   0.0   -0.0002459961281216999
-0.00037601007379040144   0.0   -0.0002459961281216999
-0.00037601007379040144   0.0   -0.0002459961281216999
-0.00037601007379040144   0.0   -0.0002459961281216999
-0.00023933964718531405   4.175819688152457e-05   6.842834349026622e-06
-0.00023933964718531405   4.175819688152457e-05   6.842834349026622e-06
-0.00023933964718531405   4.175819688152457e-05   6.842834349026622e-06
-0.00023933964718531405   4.175819688152457e-05   6.842834349026622e-06
-0.00023466034591180398   0.0   -0.0002320690929597796
-0.00023466034591180398   0.0   -0.0002320690929597796
-0.00023466034591180398   0.0   -0.0002320690929597796
-0.00023466034591180398   0.0   -0.0002320690929597796
-0.0003935791912424588   5.006258581285159e-05   2.7580977702683926e-06
-0.0003935791912424588   5.006258581285159e-05   2.7580977702683926e-06
-0.0003935791912424588   5.006258581285159e-05   2.7580977702683926e-06
-0.0003935791912424588   5.006258581285159e-05   2.7580977702683926e-06
-0.0003053352098511022   1.1605862634933545e-05   -0.00012124117064190822
-0.0003053352098511022   1.1605862634933545e-05   -0.00012124117064190822
-0.0003053352098511022   1.1605862634933545e-05   -0.00012124117064190822
-0.0003053352098511022   1.1605862634933545e-05   -0.00012124117064190822
-0.00039357919124245944   0.0   -0.0002621066444474906
-0.00039357919124245944   0.0   -0.0002621066444474906
-0.00039357919124245944   0.0   -0.0002621066444474906
-0.00039357919124245944   0.0   -0.0002621066444474906
-0.00023466034591180398   5.006258581285165e-05   3.2795649257979424e-05
-0.00023466034591180398   5.006258581285165e-05   3.2795649257979424e-05
-0.00023466034591180398   5.006258581285165e-05   3.2795649257979424e-05
-0.00023466034591180398   5.006258581285165e-05   3.2795649257979424e-05
-0.0002353805888167693   0.0   -0.00023776506391551646
-0.0002353805888167693   0.0   -0.00023776506391551646
-0.0002353805888167693   0.0   -0.00023776506391551646
-0.0002353805888167693   0.0   -0.00023776506391551646
-0.00040594464774150685   5.362106386526096e-05   1.4335729306557288e-05
-0.00040594464774150685   5.362106386526096e-05   1.4335729306557288e-05
-0.00040594464774150685   5.362106386526096e-05   1.4335729306557288e-05
-0.00040594464774150685   5.362106386526096e-05   1.4335729306557288e-05
-0.00031447989002961386   2.0284650443311758e-05   -0.00011810368549342812
-0.00031447989002961386   2.0284650443311758e-05   -0.00011810368549342812
-0.00031447989002961386   2.0284650443311758e-05   -0.00011810368549342812
-0.00031447989002961386   2.0284650443311758e-05   -0.00011810368549342812
-0.00040594464774150755   0.0   -0.0002699377022346731
-0.00040594464774150755   0.0   -0.0002699377022346731
-0.00040594464774150755   0.0   -0.0002699377022346731
-0.00040594464774150755   0.0   -0.0002699377022346731
-0.0002353805888167693   5.362106386526107e-05   4.650836762571395e-05
-0.0002353805888167693   5.362106386526107e-05   4.650836762571395e-05
-0.0002353805888167693   5.362106386526107e-05   4.650836762571395e-05
-0.0002353805888167693   5.362106386526107e-05   4.650836762571395e-05
-0.00023532276743219895   0.0   -0.00023921948287684033
-0.00023532276743219895   0.0   -0.00023921948287684033
-0.00023532276743219895   0.0   -0.00023921948287684033
-0.00023532276743219895   0.0   -0.00023921948287684033
-0.00043252523325882383   6.104337646111157e-05   5.282526762420193e-05
-0.00043252523325882383   6.104337646111157e-05   5.282526762420193e-05
-0.00043252523325882383   6.104337646111157e-05   5.282526762420193e-05
-0.00043252523325882383   6.104337646111157e-05   5.282526762420193e-05
-0.0003206337075868527   2.559851613152727e-05   -0.00011239369229799927
-0.0003206337075868527   2.559851613152727e-05   -0.00011239369229799927
-0.0003206337075868527   2.559851613152727e-05   -0.00011239369229799927
-0.0003206337075868527   2.559851613152727e-05   -0.00011239369229799927
-0.00023933964718531446   0.0   -0.00022094120999278512
-0.00023933964718531446   0.0   -0.00022094120999278512
-0.00023933964718531446   0.0   -0.00022094120999278512
-0.00023933964718531446   0.0   -0.00022094120999278512
-0.00010892896576864489   1.5335232549710555e-05   5.611065231490359e-06
-0.00010892896576864489   1.5335232549710555e-05   5.611065231490359e-06
-0.00010892896576864489   1.5335232549710555e-05   5.611065231490359e-06
-0.00010892896576864489   1.5335232549710555e-05   5.611065231490359e-06
-0.00010482331481379764   0.0   -0.0002189899761221807
-0.00010482331481379764   0.0   -0.0002189899761221807
-0.00010482331481379764   0.0   -0.0002189899761221807
-0.00010482331481379764   0.0   -0.0002189899761221807
-0.00023466034591180398   2.179852806266484e-05   -1.5674041129769105e-05
-0.00023466034591180398   2.179852806266484e-05   -1.5674041129769105e-05
-0.00023466034591180398   2.179852806266484e-05   -1.5674041129769105e-05
-0.00023466034591180398   2.179852806266484e-05   -1.5674041129769105e-05
-0.00017208148099955576   1.6260282255036547e-06   -0.00010786864941455195
-0.00017208148099955576   1.6260282255036547e-06   -0.00010786864941455195
-0.00017208148099955576   1.6260282255036547e-06   -0.00010786864941455195
-0.00017208148099955576   1.6260282255036547e-06   -0.00010786864941455195
-0.0002346603459118038   0.0   -0.0002320690929597794
-0.0002346603459118038   0.0   -0.0002320690929597794
-0.0002346603459118038   0.0   -0.0002320690929597794
-0.0002346603459118038   0.0   -0.0002320690929597794
-0.00010482331481379764   2.179852806266484e-05   -2.594924292170195e-06
-0.00010482331481379764   2.179852806266484e-05   -2.594924292170195e-06
-0.00010482331481379764   2.179852806266484e-05   -2.594924292170195e-06
-0.00010482331481379764   2.179852806266484e-05   -2.594924292170195e-06
-0.00010254135147882543   0.0   -0.00022175098057985933
-0.00010254135147882543   0.0   -0.00022175098057985933
-0.00010254135147882543   0.0   -0.00022175098057985933
-0.00010254135147882543   0.0   -0.00022175098057985933
-0.0002353805888167693   2.669013889276188e-05   -1.636633501894333e-05
-0.0002353805888167693   2.669013889276188e-05   -1.636633501894333e-05
-0.0002353805888167693   2.669013889276188e-05   -1.636633501894333e-05
-0.0002353805888167693   2.669013889276188e-05   -1.636633501894333e-05
-0.00016860084869531436   8.5984269832669e-06   -0.00011681087474233697
-0.00016860084869531436   8.5984269832669e-06   -0.00011681087474233697
-0.00016860084869531436   8.5984269832669e-06   -0.00011681087474233697
-0.00016860084869531436   8.5984269832669e-06   -0.00011681087474233697
-0.0002353805888167693   0.0   -0.00023776506391551646
-0.0002353805888167693   0.0   -0.00023776506391551646
-0.0002353805888167693   0.0   -0.00023776506391551646
-0.0002353805888167693   0.0   -0.00023776506391551646
-0.00010254135147882543   2.669013889276188e-05   -3.5225168328623124e-07
-0.00010254135147882543   2.669013889276188e-05   -3.5225168328623124e-07
-0.00010254135147882543   2.669013889276188e-05   -3.5225168328623124e-07
-0.00010254135147882543   2.669013889276188e-05   -3.5225168328623124e-07
-0.00010047310225219467   0.0   -0.00022059354777687886
-0.00010047310225219467   0.0   -0.00022059354777687886
-0.00010047310225219467   0.0   -0.00022059354777687886
-0.00010047310225219467   0.0   -0.00022059354777687886
-0.00023532276743219835   3.104322516660207e-05   -1.4470040910166465e-05
-0.00023532276743219835   3.104322516660207e-05   -1.4470040910166465e-05
-0.00023532276743219835   3.104322516660207e-05   -1.4470040910166465e-05
-0.00023532276743219835   3.104322516660207e-05   -1.4470040910166465e-05
-0.00016792684553448194   1.4309596782197825e-05   -0.0001167564003757188
-0.00016792684553448194   1.4309596782197825e-05   -0.0001167564003757188
-0.00016792684553448194   1.4309596782197825e-05   -0.0001167564003757188
-0.00016792684553448194   1.4309596782197825e-05   -0.0001167564003757188
-0.00010892896576864508   0.0   -0.00021174007046295877
-0.00010892896576864508   0.0   -0.00021174007046295877
-0.00010892896576864508   0.0   -0.00021174007046295877
-0.00010892896576864508   0.0   -0.00021174007046295877
1.4334590963232235e-05   -1.949639758300106e-06   -7.4705930981430955e-06
1.4334590963232235e-05   -1.949639758300106e-06   -7.4705930981430955e-06
1.4334590963232235e-05   -1.949639758300106e-06   -7.4705930981430955e-06
1.4334590963232235e-05   -1.949639758300106e-06   -7.4705930981430955e-06
1.692812208614834e-05   0.0   -0.00021667519330673756
1.692812208614834e-05   0.0   -0.00021667519330673756
1.692812208614834e-05   0.0   -0.00021667519330673756
1.692812208614834e-05   0.0   -0.00021667519330673756
-0.00010482331481379764   3.857971359070666e-06   -1.607091462227066e-05
-0.00010482331481379764   3.857971359070666e-06   -1.607091462227066e-05
-0.00010482331481379764   3.857971359070666e-06   -1.607091462227066e-05
-0.00010482331481379764   3.857971359070666e-06   -1.607091462227066e-05
-4.600042184124826e-05   -4.11260236981629e-06   -0.00010932672533918705
-4.600042184124826e-05   -4.11260236981629e-06   -0.00010932672533918705
-4.600042184124826e-05   -4.11260236981629e-06   -0.00010932672533918705
-4.600042184124826e-05   -4.11260236981629e-06   -0.00010932672533918705
-0.00010482331481379764   0.0   -0.0002189899761221807
-0.00010482331481379764   0.0   -0.0002189899761221807
-0.00010482331481379764   0.0   -0.0002189899761221807
-0.00010482331481379764   0.0   -0.0002189899761221807
1.692812208614837e-05   3.857971359070666e-06   -1.3756131806828234e-05
1.692812208614837e-05   3.857971359070666e-06   -1.3756131806828234e-05
1.692812208614837e-05   3.857971359070666e-06   -1.3756131806828234e-05
1.692812208614837e-05   3.857971359070666e-06   -1.3756131806828234e-05
1.8967374439217686e-05   0.0   -0.00021636969603726564
1.8967374439217686e-05   0.0   -0.00021636969603726564
1.8967374439217686e-05   0.0   -0.00021636969603726564
1.8967374439217686e-05   0.0   -0.00021636969603726564
-0.00010254135147882524   8.968807570988854e-06   -1.9236437383120746e-05
-0.00010254135147882524   8.968807570988854e-06   -1.9236437383120746e-05
-0.00010254135147882524   8.968807570988854e-06   -1.9236437383120746e-05
-0.00010254135147882524   8.968807570988854e-06   -1.9236437383120746e-05
-4.292797018728996e-05   2.1835667374289075e-06   -0.00011452092836887716
-4.292797018728996e-05   2.1835667374289075e-06   -0.00011452092836887716
-4.292797018728996e-05   2.1835667374289075e-06   -0.00011452092836887716
-4.292797018728996e-05   2.1835667374289075e-06   -0.00011452092836887716
-0.00010254135147882543   0.0   -0.00022175098057985933
-0.00010254135147882543   0.0   -0.00022175098057985933
-0.00010254135147882543   0.0   -0.00022175098057985933
-0.00010254135147882543   0.0   -0.00022175098057985933
1.8967374439217716e-05   8.968807570988854e-06   -1.3855152840527488e-05
1.8967374439217716e-05   8.968807570988854e-06   -1.3855152840527488e-05
1.8967374439217716e-05   8.968807570988854e-06   -1.3855152840527488e-05
1.8967374439217716e-05   8.968807570988854e-06   -1.3855152840527488e-05
2.1730604113388288e-05   0.0   -0.00021165838723794032
2.1730604113388288e-05   0.0   -0.00021165838723794032
2.1730604113388288e-05   0.0   -0.00021165838723794032
2.1730604113388288e-05   0.0   -0.00021165838723794032
-0.00010047310225219458   1.4891934231563966e-05   -1.6920703834240585e-05
-0.00010047310225219458   1.4891934231563966e-05   -1.6920703834240585e-05
-0.00010047310225219458   1.4891934231563966e-05   -1.6920703834240585e-05
-0.00010047310225219458   1.4891934231563966e-05   -1.6920703834240585e-05
-4.040537368271848e-05   8.410494451598869e-06   -0.00011314472091538828
-4.040537368271848e-05   8.410494451598869e-06   -0.00011314472091538828
-4.040537368271848e-05   8.410494451598869e-06   -0.00011314472091538828
-4.040537368271848e-05   8.410494451598869e-06   -0.00011314472091538828
1.433459096323226e-05   0.0   -0.00021290985431793882
1.433459096323226e-05   0.0   -0.00021290985431793882
1.433459096323226e-05   0.0   -0.00021290985431793882
1.433459096323226e-05   0.0   -0.00021290985431793882
0.0001480855810778991   -1.7368618081040044e-05   -4.127083087846536e-07
0.0001480855810778991   -1.7368618081040044e-05   -4.127083087846536e-07
0.0001480855810778991   -1.7368618081040044e-05   -4.127083087846536e-07
0.0001480855810778991   -1.7368618081040044e-05   -4.127083087846536e-07
0.00014827320312369612   0.0   -0.00022454126384195168
0.00014827320312369612   0.0   -0.00022454126384195168
0.00014827320312369612   0.0   -0.00022454126384195168
0.00014827320312369612   0.0   -0.00022454126384195168
1.69281220861484e-05   -1.3110117558688954e-05   2.2332750891745235e-06
1.69281220861484e-05   -1.3110117558688954e-05   2.2332750891745235e-06
1.69281220861484e-05   -1.3110117558688954e-05   2.2332750891745235e-06
1.69281220861484e-05   -1.3110117558688954e-05   2.2332750891745235e-06
8.130389704346419e-05   -9.692841270010714e-06   -0.0001071100489462253
8.130389704346419e-05   -9.692841270010714e-06   -0.0001071100489462253
8.130389704346419e-05   -9.692841270010714e-06   -0.0001071100489462253
8.130389704346419e-05   -9.692841270010714e-06   -0.0001071100489462253
1.69281220861484e-05   0.0   -0.00021667519330673831
1.69281220861484e-05   0.0   -0.00021667519330673831
1.69281220861484e-05   0.0   -0.00021667519330673831
1.69281220861484e-05   0.0   -0.00021667519330673831
0.00014827320312369612   -1.3110117558688954e-05   -5.632795446038833e-06
0.00014827320312369612   -1.3110117558688954e-05   -5.632795446038833e-06
0.00014827320312369612   -1.3110117558688954e-05   -5.632795446038833e-06
0.00014827320312369612   -1.3110117558688954e-05   -5.632795446038833e-06
0.0001475729345108659   0.0   -0.00022133435705529744
0.0001475729345108659   0.0   -0.00022133435705529744
0.0001475729345108659   0.0   -0.00022133435705529744
0.0001475729345108659   0.0   -0.00022133435705529744
1.8967374439217716e-05   -8.27443503005241e-06   -2.0270959178524226e-06
1.8967374439217716e-05   -8.27443503005241e-06   -2.0270959178524226e-06
1.8967374439217716e-05   -8.27443503005241e-06   -2.0270959178524226e-06
1.8967374439217716e-05   -8.27443503005241e-06   -2.0270959178524226e-06
8.225052829850715e-05   -3.8826364571326304e-06   -0.0001101340981604199
8.225052829850715e-05   -3.8826364571326304e-06   -0.0001101340981604199
8.225052829850715e-05   -3.8826364571326304e-06   -0.0001101340981604199
8.225052829850715e-05   -3.8826364571326304e-06   -0.0001101340981604199
1.89673744392177e-05   0.0   -0.00021636969603726583
1.89673744392177e-05   0.0   -0.00021636969603726583
1.89673744392177e-05   0.0   -0.00021636969603726583
1.89673744392177e-05   0.0   -0.00021636969603726583
0.0001475729345108659   -8.27443503005241e-06   -6.9917569358838466e-06
0.0001475729345108659   -8.27443503005241e-06   -6.9917569358838466e-06
0.0001475729345108659   -8.27443503005241e-06   -6.9917569358838466e-06
0.0001475729345108659   -8.27443503005241e-06   -6.9917569358838466e-06
0.00015036829507793594   0.0   -0.00021272181646841826
0.00015036829507793594   0.0   -0.00021272181646841826
0.00015036829507793594   0.0   -0.00021272181646841826
0.00015036829507793594   0.0   -0.00021272181646841826
2.1730604113388326e-05   -1.772382050795984e-06   2.73776436963864e-06
2.1730604113388326e-05   -1.772382050795984e-06   2.73776436963864e-06
2.1730604113388326e-05   -1.772382050795984e-06   2.73776436963864e-06
2.1730604113388326e-05   -1.772382050795984e-06   2.73776436963864e-06
8.466783475857676e-05   3.039899640706477e-06   -0.00010504498905391013
8.466783475857676e-05   3.039899640706477e-06   -0.00010504498905391013
8.466783475857676e-05   3.039899640706477e-06   -0.00010504498905391013
8.466783475857676e-05   3.039899640706477e-06   -0.00010504498905391013
0.0001480855810778991   0.0   -0.00022333102516656285
0.0001480855810778991   0.0   -0.00022333102516656285
0.0001480855810778991   0.0   -0.00022333102516656285
0.0001480855810778991   0.0   -0.00022333102516656285
0.00033392409538295065   -4.397844102026579e-05   6.001276739636544e-05
0.00033392409538295065   -4.397844102026579e-05   6.001276739636544e-05
0.00033392409538295065   -4.397844102026579e-05   6.001276739636544e-05
0.00033392409538295065   -4.397844102026579e-05   6.001276739636544e-05
0.00031351028620869804   0.0   -0.00024701644629002395
0.00031351028620869804   0.0   -0.00024701644629002395
0.00031351028620869804   0.0   -0.00024701644629002395
0.00031351028620869804   0.0   -0.00024701644629002395
0.00014827320312369612   -3.745863741345381e-05   5.0853874633051486e-05
0.00014827320312369612   -3.745863741345381e-05   5.0853874633051486e-05
0.00014827320312369612   -3.745863741345381e-05   5.0853874633051486e-05
0.00014827320312369612   -3.745863741345381e-05   5.0853874633051486e-05
0.00023079793364329856   -1.9737850936217598e-05   -9.731981478596088e-05
0.00023079793364329856   -1.9737850936217598e-05   -9.731981478596088e-05
0.00023079793364329856   -1.9737850936217598e-05   -9.731981478596088e-05
0.00023079793364329856   -1.9737850936217598e-05   -9.731981478596088e-05
0.00014827320312369599   0.0   -0.00022454126384195146
0.00014827320312369599   0.0   -0.00022454126384195146
0.00014827320312369599   0.0   -0.00022454126384195146
0.00014827320312369599   0.0   -0.00022454126384195146
0.00031351028620869696   -3.7458637413453704e-05   2.8378692184979058e-05
0.00031351028620869696   -3.7458637413453704e-05   2.8378692184979058e-05
0.00031351028620869696   -3.7458637413453704e-05   2.8378692184979058e-05
0.00031351028620869696   -3.7458637413453704e-05   2.8378692184979058e-05
0.0003040671961255937   0.0   -0.00024188012407217675
0.0003040671961255937   0.0   -0.00024188012407217675
0.0003040671961255937   0.0   -0.00024188012407217675
0.0003040671961255937   0.0   -0.00024188012407217675
0.0001475729345108659   -3.424294502813211e-05   3.948941230258224e-05
0.0001475729345108659   -3.424294502813211e-05   3.948941230258224e-05
0.0001475729345108659   -3.424294502813211e-05   3.948941230258224e-05
0.0001475729345108659   -3.424294502813211e-05   3.948941230258224e-05
0.0002261701996246448   -1.444905019185421e-05   -0.00010338236645548269
0.0002261701996246448   -1.444905019185421e-05   -0.00010338236645548269
0.0002261701996246448   -1.444905019185421e-05   -0.00010338236645548269
0.0002261701996246448   -1.444905019185421e-05   -0.00010338236645548269
0.0001475729345108659   0.0   -0.00022133435705529744
0.0001475729345108659   0.0   -0.00022133435705529744
0.0001475729345108659   0.0   -0.00022133435705529744
0.0001475729345108659   0.0   -0.00022133435705529744
0.00030406719612559264   -3.4242945028132004e-05   1.89436452857028e-05
0.00030406719612559264   -3.4242945028132004e-05   1.89436452857028e-05
0.00030406719612559264   -3.4242945028132004e-05   1.89436452857028e-05
0.00030406719612559264   -3.4242945028132004e-05   1.89436452857028e-05
0.00029005468741841005   0.0   -0.0002287186788006984
0.00029005468741841005   0.0   -0.0002287186788006984
0.00029005468741841005   0.0   -0.0002287186788006984
0.00029005468741841005   0.0   -0.0002287186788006984
0.00015036829507793594   -2.6661437220467548e-05   2.008883743237266e-05
0.00015036829507793594   -2.6661437220467548e-05   2.008883743237266e-05
0.00015036829507793594   -2.6661437220467548e-05   2.008883743237266e-05
0.00015036829507793594   -2.6661437220467548e-05   2.008883743237266e-05
0.0002188138109646382   -6.153601454501119e-06   -0.00010629172383837753
0.0002188138109646382   -6.153601454501119e-06   -0.00010629172383837753
0.0002188138109646382   -6.153601454501119e-06   -0.00010629172383837753
0.0002188138109646382   -6.153601454501119e-06   -0.00010629172383837753
-0.0003268195785330619   4.175819688152446e-05   -0.00021391716271314482
-0.0003268195785330619   4.175819688152446e-05   -0.00021391716271314482