<?xml version="1.0"?> 
<VTKFile type="UnstructuredGrid"> 
   <UnstructuredGrid> 
      <Piece NumberOfPoints="6000"  NumberOfCells="1500">  
          <Points>  
             <DataArray type="Float64" NumberOfComponents="3" format="ascii">   
-500.0   0.0   0.0
-450.0   0.0   0.0
-500.0   30.0   0.0
-500.0   0.0   16.666666666666668
-450.0   0.0   0.0
-450.0   30.0   0.0
-500.0   30.0   0.0
-450.0   30.0   16.666666666666668
-500.0   0.0   16.666666666666668
-500.0   30.0   16.666666666666668
-450.0   30.0   16.666666666666668
-500.0   30.0   0.0
-500.0   0.0   16.666666666666668
-450.0   30.0   16.666666666666668
-450.0   0.0   16.666666666666668
-450.0   0.0   0.0
-500.0   0.0   16.666666666666668
-450.0   30.0   16.666666666666668
-450.0   0.0   0.0
-500.0   30.0   0.0
-500.0   0.0   16.666666666666668
-450.0   0.0   16.666666666666668
-500.0   30.0   16.666666666666668
-500.0   0.0   33.333333333333336
-450.0   0.0   16.666666666666668
-450.0   30.0   16.666666666666668
-500.0   30.0   16.666666666666668
-450.0   30.0   33.333333333333336
-500.0   0.0   33.333333333333336
-500.0   30.0   33.333333333333336
-450.0   30.0   33.333333333333336
-500.0   30.0   16.666666666666668
-500.0   0.0   33.333333333333336
-450.0   30.0   33.333333333333336
-450.0   0.0   33.333333333333336
-450.0   0.0   16.666666666666668
-500.0   0.0   33.333333333333336
-450.0   30.0   33.333333333333336
-450.0   0.0   16.666666666666668
-500.0   30.0   16.666666666666668
-500.0   0.0   33.333333333333336
-450.0   0.0   33.333333333333336
-500.0   30.0   33.333333333333336
-500.0   0.0   50.0
-450.0   0.0   33.333333333333336
-450.0   30.0   33.333333333333336
-500.0   30.0   33.333333333333336
-450.0   30.0   50.0
-500.0   0.0   50.0
-500.0   30.0   50.0
-450.0   30.0   50.0
-500.0   30.0   33.333333333333336
-500.0   0.0   50.0
-450.0   30.0   50.0
-450.0   0.0   50.0
-450.0   0.0   33.333333333333336
-500.0   0.0   50.0
-450.0   30.0   50.0
-450.0   0.0   33.333333333333336
-500.0   30.0   33.333333333333336
-500.0   30.0   0.0
-450.0   30.0   0.0
-500.0   60.0   0.0
-500.0   30.0   16.666666666666668
-450.0   30.0   0.0
-450.0   60.0   0.0
-500.0   60.0   0.0
-450.0   60.0   16.666666666666668
-500.0   30.0   16.666666666666668
-500.0   60.0   16.666666666666668
-450.0   60.0   16.666666666666668
-500.0   60.0   0.0
-500.0   30.0   16.666666666666668
-450.0   60.0   16.666666666666668
-450.0   30.0   16.666666666666668
-450.0   30.0   0.0
-500.0   30.0   16.666666666666668
-450.0   60.0   16.666666666666668
-450.0   30.0   0.0
-500.0   60.0   0.0
-500.0   30.0   16.666666666666668
-450.0   30.0   16.666666666666668
-500.0   60.0   16.666666666666668
-500.0   30.0   33.333333333333336
-450.0   30.0   16.666666666666668
-450.0   60.0   16.666666666666668
-500.0   60.0   16.666666666666668
-450.0   60.0   33.333333333333336
-500.0   30.0   33.333333333333336
-500.0   60.0   33.333333333333336
-450.0   60.0   33.333333333333336
-500.0   60.0   16.666666666666668
-500.0   30.0   33.333333333333336
-450.0   60.0   33.333333333333336
-450.0   30.0   33.333333333333336
-450.0   30.0   16.666666666666668
-500.0   30.0   33.333333333333336
-450.0   60.0   33.333333333333336
-450.0   30.0   16.666666666666668
-500.0   60.0   16.666666666666668
-500.0   30.0   33.333333333333336
-450.0   30.0   33.333333333333336
-500.0   60.0   33.333333333333336
-500.0   30.0   50.0
-450.0   30.0   33.333333333333336
-450.0   60.0   33.333333333333336
-500.0   60.0   33.333333333333336
-450.0   60.0   50.0
-500.0   30.0   50.0
-500.0   60.0   50.0
-450.0   60.0   50.0
-500.0   60.0   33.333333333333336
-500.0   30.0   50.0
-450.0   60.0   50.0
-450.0   30.0   50.0
-450.0   30.0   33.333333333333336
-500.0   30.0   50.0
-450.0   60.0   50.0
-450.0   30.0   33.333333333333336
-500.0   60.0   33.333333333333336
-500.0   60.0   0.0
-450.0   60.0   0.0
-500.0   90.0   0.0
-500.0   60.0   16.666666666666668
-450.0   60.0   0.0
-450.0   90.0   0.0
-500.0   90.0   0.0
-450.0   90.0   16.666666666666668
-500.0   60.0   16.666666666666668
-500.0   90.0   16.666666666666668
-450.0   90.0   16.666666666666668
-500.0   90.0   0.0
-500.0   60.0   16.666666666666668
-450.0   90.0   16.666666666666668
-450.0   60.0   16.666666666666668
-450.0   60.0   0.0
-500.0   60.0   16.666666666666668
-450.0   90.0   16.666666666666668
-450.0   60.0   0.0
-500.0   90.0   0.0
-500.0   60.0   16.666666666666668
-450.0   60.0   16.666666666666668
-500.0   90.0   16.666666666666668
-500.0   60.0   33.333333333333336
-450.0   60.0   16.666666666666668
-450.0   90.0   16.666666666666668
-500.0   90.0   16.666666666666668
-450.0   90.0   33.333333333333336
-500.0   60.0   33.333333333333336
-500.0   90.0   33.333333333333336
-450.0   90.0   33.333333333333336
-500.0   90.0   16.666666666666668
-500.0   60.0   33.333333333333336
-450.0   90.0   33.333333333333336
-450.0   60.0   33.333333333333336
-450.0   60.0   16.666666666666668
-500.0   60.0   33.333333333333336
-450.0   90.0   33.333333333333336
-450.0   60.0   16.666666666666668
-500.0   90.0   16.666666666666668
-500.0   60.0   33.333333333333336
-450.0   60.0   33.333333333333336
-500.0   90.0   33.333333333333336
-500.0   60.0   50.0
-450.0   60.0   33.333333333333336
-450.0   90.0   33.333333333333336
-500.0   90.0   33.333333333333336
-450.0   90.0   50.0
-500.0   60.0   50.0
-500.0   90.0   50.0
-450.0   90.0   50.0
-500.0   90.0   33.333333333333336
-500.0   60.0   50.0
-450.0   90.0   50.0
-450.0   60.0   50.0
-450.0   60.0   33.333333333333336
-500.0   60.0   50.0
-450.0   90.0   50.0
-450.0   60.0   33.333333333333336
-500.0   90.0   33.333333333333336
-500.0   90.0   0.0
-450.0   90.0   0.0
-500.0   120.0   0.0
-500.0   90.0   16.666666666666668
-450.0   90.0   0.0
-450.0   120.0   0.0
-500.0   120.0   0.0
-450.0   120.0   16.666666666666668
-500.0   90.0   16.666666666666668
-500.0   120.0   16.666666666666668
-450.0   120.0   16.666666666666668
-500.0   120.0   0.0
-500.0   90.0   16.666666666666668
-450.0   120.0   16.666666666666668
-450.0   90.0   16.666666666666668
-450.0   90.0   0.0
-500.0   90.0   16.666666666666668
-450.0   120.0   16.666666666666668
-450.0   90.0   0.0
-500.0   120.0   0.0
-500.0   90.0   16.666666666666668
-450.0   90.0   16.666666666666668
-500.0   120.0   16.666666666666668
-500.0   90.0   33.333333333333336
-450.0   90.0   16.666666666666668
-450.0   120.0   16.666666666666668
-500.0   120.0   16.666666666666668
-450.0   120.0   33.333333333333336
-500.0   90.0   33.333333333333336
-500.0   120.0   33.333333333333336
-450.0   120.0   33.333333333333336
-500.0   120.0   16.666666666666668
-500.0   90.0   33.333333333333336
-450.0   120.0   33.333333333333336
-450.0   90.0   33.333333333333336
-450.0   90.0   16.666666666666668
-500.0   90.0   33.333333333333336
-450.0   120.0   33.333333333333336
-450.0   90.0   16.666666666666668
-500.0   120.0   16.666666666666668
-500.0   90.0   33.333333333333336
-450.0   90.0   33.333333333333336
-500.0   120.0   33.333333333333336
-500.0   90.0   50.0
-450.0   90.0   33.333333333333336
-450.0   120.0   33.333333333333336
-500.0   120.0   33.333333333333336
-450.0   120.0   50.0
-500.0   90.0   50.0
-500.0   120.0   50.0
-450.0   120.0   50.0
-500.0   120.0   33.333333333333336
-500.0   90.0   50.0
-450.0   120.0   50.0
-450.0   90.0   50.0
-450.0   90.0   33.333333333333336
-500.0   90.0   50.0
-450.0   120.0   50.0
-450.0   90.0   33.333333333333336
-500.0   120.0   33.333333333333336
-500.0   120.0   0.0
-450.0   120.0   0.0
-500.0   150.0   0.0
-500.0   120.0   16.666666666666668
-450.0   120.0   0.0
-450.0   150.0   0.0
-500.0   150.0   0.0
-450.0   150.0   16.666666666666668
-500.0   120.0   16.666666666666668
-500.0   150.0   16.666666666666668
-450.0   150.0   16.666666666666668
-500.0   150.0   0.0
-500.0   120.0   16.666666666666668
-450.0   150.0   16.666666666666668
-450.0   120.0   16.666666666666668
-450.0   120.0   0.0
-500.0   120.0   16.666666666666668
-450.0   150.0   16.666666666666668
-450.0   120.0   0.0
-500.0   150.0   0.0
-500.0   120.0   16.666666666666668
-450.0   120.0   16.666666666666668
-500.0   150.0   16.666666666666668
-500.0   120.0   33.333333333333336
-450.0   120.0   16.666666666666668
-450.0   150.0   16.666666666666668
-500.0   150.0   16.666666666666668
-450.0   150.0   33.333333333333336
-500.0   120.0   33.333333333333336
-500.0   150.0   33.333333333333336
-450.0   150.0   33.333333333333336
-500.0   150.0   16.666666666666668
-500.0   120.0   33.333333333333336
-450.0   150.0   33.333333333333336
-450.0   120.0   33.333333333333336
-450.0   120.0   16.666666666666668
-500.0   120.0   33.333333333333336
-450.0   150.0   33.333333333333336
-450.0   120.0   16.666666666666668
-500.0   150.0   16.666666666666668
-500.0   120.0   33.333333333333336
-450.0   120.0   33.333333333333336
-500.0   150.0   33.333333333333336
-500.0   120.0   50.0
-450.0   120.0   33.333333333333336
-450.0   150.0   33.333333333333336
-500.0   150.0   33.333333333333336
-450.0   150.0   50.0
-500.0   120.0   50.0
-500.0   150.0   50.0
-450.0   150.0   50.0
-500.0   150.0   33.333333333333336
-500.0   120.0   50.0
-450.0   150.0   50.0
-450.0   120.0   50.0
-450.0   120.0   33.333333333333336
-500.0   120.0   50.0
-450.0   150.0   50.0
-450.0   120.0   33.333333333333336
-500.0   150.0   33.333333333333336
-450.0   0.0   0.0
-400.0   0.0   0.0
-450.0   30.0   0.0
-450.0   0.0   16.666666666666668
-400.0   0.0   0.0
-400.0   30.0   0.0
-450.0   30.0   0.0
-400.0   30.0   16.666666666666668
-450.0   0.0   16.666666666666668
-450.0   30.0   16.666666666666668
-400.0   30.0   16.666666666666668
-450.0   30.0   0.0
-450.0   0.0   16.666666666666668
-400.0   30.0   16.666666666666668
-400.0   0.0   16.666666666666668
-400.0   0.0   0.0
-450.0   0.0   16.666666666666668
-400.0   30.0   16.666666666666668
-400.0   0.0   0.0
-450.0   30.0   0.0
-450.0   0.0   16.666666666666668
-400.0   0.0   16.666666666666668
-450.0   30.0   16.666666666666668
[...]
          <PointData>  
             <DataArray type="Float64" NumberOfComponents="3" Name="Strains" format="ascii">   
-0.0003134241246561446   0.0   -0.00020509427855468944
-0.0003134241246561446   0.0   -0.00020509427855468944
-0.0003134241246561446   0.0   -0.00020509427855468944
-0.0003134241246561446   0.0   -0.00020509427855468944
-0.0001994978405941791   3.480186288438064e-05   5.663979279214404e-06
-0.0001994978405941791   3.480186288438064e-05   5.663979279214404e-06
-0.0001994978405941791   3.480186288438064e-05   5.663979279214404e-06
-0.0001994978405941791   3.480186288438064e-05   5.663979279214404e-06
-0.0001955944990399136   0.0   -0.00019348865603311917
-0.0001955944990399136   0.0   -0.00019348865603311917
-0.0001955944990399136   0.0   -0.00019348865603311917
-0.0001955944990399136   0.0   -0.00019348865603311917
-0.00032806521616359576   4.172560963021951e-05   2.260506728220279e-06
-0.00032806521616359576   4.172560963021951e-05   2.260506728220279e-06
-0.00032806521616359576   4.172560963021951e-05   2.260506728220279e-06
-0.00032806521616359576   4.172560963021951e-05   2.260506728220279e-06
-0.00025450931184802867   9.671352101308555e-06   -0.00010110011261371159
-0.00025450931184802867   9.671352101308555e-06   -0.00010110011261371159
-0.00025450931184802867   9.671352101308555e-06   -0.00010110011261371159
-0.00025450931184802867   9.671352101308555e-06   -0.00010110011261371159
-0.00032806521616359635   0.0   -0.0002185240218112509
-0.00032806521616359635   0.0   -0.0002185240218112509
-0.00032806521616359635   0.0   -0.0002185240218112509
-0.00032806521616359635   0.0   -0.0002185240218112509
-0.0001955944990399136   4.172560963021957e-05   2.7295872506351987e-05
-0.0001955944990399136   4.172560963021957e-05   2.7295872506351987e-05
-0.0001955944990399136   4.172560963021957e-05   2.7295872506351987e-05
-0.0001955944990399136   4.172560963021957e-05   2.7295872506351987e-05
-0.0001961916125658098   0.0   -0.00019823682598471275
-0.0001961916125658098   0.0   -0.00019823682598471275
-0.0001961916125658098   0.0   -0.00019823682598471275
-0.0001961916125658098   0.0   -0.00019823682598471275
-0.00033836840053202294   4.469224121387525e-05   1.1909142563984757e-05
-0.00033836840053202294   4.469224121387525e-05   1.1909142563984757e-05
-0.00033836840053202294   4.469224121387525e-05   1.1909142563984757e-05
-0.00033836840053202294   4.469224121387525e-05   1.1909142563984757e-05
-0.00026212841436470263   1.69059965221151e-05   -9.848575423315945e-05
-0.00026212841436470263   1.69059965221151e-05   -9.848575423315945e-05
-0.00026212841436470263   1.69059965221151e-05   -9.848575423315945e-05
-0.00026212841436470263   1.69059965221151e-05   -9.848575423315945e-05
-0.00033836840053202353   0.0   -0.00022505217071303794
-0.00033836840053202353   0.0   -0.00022505217071303794
-0.00033836840053202353   0.0   -0.00022505217071303794
-0.00033836840053202353   0.0   -0.00022505217071303794
-0.0001961916125658098   4.46922412138753e-05   3.8724487292310036e-05
-0.0001961916125658098   4.46922412138753e-05   3.8724487292310036e-05
-0.0001961916125658098   4.46922412138753e-05   3.8724487292310036e-05
-0.0001961916125658098   4.46922412138753e-05   3.8724487292310036e-05
-0.00019613978386512685   0.0   -0.00019944974103685092
-0.00019613978386512685   0.0   -0.00019944974103685092
-0.00019613978386512685   0.0   -0.00019944974103685092
-0.00019613978386512685   0.0   -0.00019944974103685092
-0.00036051914192572064   5.0880956845629965e-05   4.398728162342835e-05
-0.00036051914192572064   5.0880956845629965e-05   4.398728162342835e-05
-0.00036051914192572064   5.0880956845629965e-05   4.398728162342835e-05
-0.00036051914192572064   5.0880956845629965e-05   4.398728162342835e-05
-0.0002672540921985747   2.1335358063489135e-05   -9.372710865253027e-05
-0.0002672540921985747   2.1335358063489135e-05   -9.372710865253027e-05
-0.0002672540921985747   2.1335358063489135e-05   -9.372710865253027e-05
-0.0002672540921985747   2.1335358063489135e-05   -9.372710865253027e-05
-0.00019949784059417945   0.0   -0.00018421316082406104
-0.00019949784059417945   0.0   -0.00018421316082406104
-0.00019949784059417945   0.0   -0.00018421316082406104
-0.00019949784059417945   0.0   -0.00018421316082406104
-9.079977516826788e-05   1.2779482956031647e-05   4.617971326077106e-06
-9.079977516826788e-05   1.2779482956031647e-05   4.617971326077106e-06
-9.079977516826788e-05   1.2779482956031647e-05   4.617971326077106e-06
-9.079977516826788e-05   1.2779482956031647e-05   4.617971326077106e-06
-8.737428759992048e-05   0.0   -0.00018258814837638317
-8.737428759992048e-05   0.0   -0.00018258814837638317
-8.737428759992048e-05   0.0   -0.00018258814837638317
-8.737428759992048e-05   0.0   -0.00018258814837638317
-0.0001955944990399136   1.8167512761226685e-05   -1.3121636966463947e-05
-0.0001955944990399136   1.8167512761226685e-05   -1.3121636966463947e-05
-0.0001955944990399136   1.8167512761226685e-05   -1.3121636966463947e-05
-0.0001955944990399136   1.8167512761226685e-05   -1.3121636966463947e-05
-0.0001434360640970497   1.3541770397315492e-06   -8.99643604383394e-05
-0.0001434360640970497   1.3541770397315492e-06   -8.99643604383394e-05
-0.0001434360640970497   1.3541770397315492e-06   -8.99643604383394e-05
-0.0001434360640970497   1.3541770397315492e-06   -8.99643604383394e-05
-0.00019559449903991342   0.0   -0.000193488656033119
-0.00019559449903991342   0.0   -0.000193488656033119
-0.00019559449903991342   0.0   -0.000193488656033119
-0.00019559449903991342   0.0   -0.000193488656033119
-8.737428759992048e-05   1.8167512761226685e-05   -2.221129309727969e-06
-8.737428759992048e-05   1.8167512761226685e-05   -2.221129309727969e-06
-8.737428759992048e-05   1.8167512761226685e-05   -2.221129309727969e-06
-8.737428759992048e-05   1.8167512761226685e-05   -2.221129309727969e-06
-8.546902855981885e-05   0.0   -0.00018488953220723598
-8.546902855981885e-05   0.0   -0.00018488953220723598
-8.546902855981885e-05   0.0   -0.00018488953220723598
-8.546902855981885e-05   0.0   -0.00018488953220723598
-0.0001961916125658098   2.2245489629127988e-05   -1.3699185974727851e-05
-0.0001961916125658098   2.2245489629127988e-05   -1.3699185974727851e-05
-0.0001961916125658098   2.2245489629127988e-05   -1.3699185974727851e-05
-0.0001961916125658098   2.2245489629127988e-05   -1.3699185974727851e-05
-0.00014053176379986594   7.165936521569337e-06   -9.741786872009829e-05
-0.00014053176379986594   7.165936521569337e-06   -9.741786872009829e-05
-0.00014053176379986594   7.165936521569337e-06   -9.741786872009829e-05
-0.00014053176379986594   7.165936521569337e-06   -9.741786872009829e-05
-0.0001961916125658098   0.0   -0.00019823682598471275
-0.0001961916125658098   0.0   -0.00019823682598471275
-0.0001961916125658098   0.0   -0.00019823682598471275
-0.0001961916125658098   0.0   -0.00019823682598471275
-8.546902855981885e-05   2.2245489629127988e-05   -3.518921972510804e-07
-8.546902855981885e-05   2.2245489629127988e-05   -3.518921972510804e-07
-8.546902855981885e-05   2.2245489629127988e-05   -3.518921972510804e-07
-8.546902855981885e-05   2.2245489629127988e-05   -3.518921972510804e-07
-8.374165771337626e-05   0.0   -0.0001839250828307607
-8.374165771337626e-05   0.0   -0.0001839250828307607
-8.374165771337626e-05   0.0   -0.0001839250828307607
-8.374165771337626e-05   0.0   -0.0001839250828307607
-0.00019613978386512633   2.5874430343483345e-05   -1.2119530783933242e-05
-0.00019613978386512633   2.5874430343483345e-05   -1.2119530783933242e-05
-0.00019613978386512633   2.5874430343483345e-05   -1.2119530783933242e-05
-0.00019613978386512633   2.5874430343483345e-05   -1.2119530783933242e-05
-0.00013996663513959299   1.1926452628293238e-05   -9.737265869737544e-05
-0.00013996663513959299   1.1926452628293238e-05   -9.737265869737544e-05
-0.00013996663513959299   1.1926452628293238e-05   -9.737265869737544e-05
-0.00013996663513959299   1.1926452628293238e-05   -9.737265869737544e-05
-9.079977516826803e-05   0.0   -0.00017654547105044202
-9.079977516826803e-05   0.0   -0.00017654547105044202
-9.079977516826803e-05   0.0   -0.00017654547105044202
-9.079977516826803e-05   0.0   -0.00017654547105044202
1.1938364997411159e-05   -1.6255523103520203e-06   -6.2905688271877305e-06
1.1938364997411159e-05   -1.6255523103520203e-06   -6.2905688271877305e-06
1.1938364997411159e-05   -1.6255523103520203e-06   -6.2905688271877305e-06
1.1938364997411159e-05   -1.6255523103520203e-06   -6.2905688271877305e-06
1.4103755143593256e-05   0.0   -0.0001806587218301548
1.4103755143593256e-05   0.0   -0.0001806587218301548
1.4103755143593256e-05   0.0   -0.0001806587218301548
1.4103755143593256e-05   0.0   -0.0001806587218301548
-8.737428759992048e-05   3.215710910379544e-06   -1.345807713719357e-05
-8.737428759992048e-05   3.215710910379544e-06   -1.345807713719357e-05
-8.737428759992048e-05   3.215710910379544e-06   -1.345807713719357e-05
-8.737428759992048e-05   3.215710910379544e-06   -1.345807713719357e-05
-3.83480100123373e-05   -3.427708983094475e-06   -9.118248784708071e-05
-3.83480100123373e-05   -3.427708983094475e-06   -9.118248784708071e-05
-3.83480100123373e-05   -3.427708983094475e-06   -9.118248784708071e-05
-3.83480100123373e-05   -3.427708983094475e-06   -9.118248784708071e-05
-8.737428759992048e-05   0.0   -0.00018258814837638317
-8.737428759992048e-05   0.0   -0.00018258814837638317
-8.737428759992048e-05   0.0   -0.00018258814837638317
-8.737428759992048e-05   0.0   -0.00018258814837638317
1.4103755143593281e-05   3.215710910379598e-06   -1.1528650590965797e-05
1.4103755143593281e-05   3.215710910379598e-06   -1.1528650590965797e-05
1.4103755143593281e-05   3.215710910379598e-06   -1.1528650590965797e-05
1.4103755143593281e-05   3.215710910379598e-06   -1.1528650590965797e-05
1.5806804052628563e-05   0.0   -0.00018040375656165698
1.5806804052628563e-05   0.0   -0.00018040375656165698
1.5806804052628563e-05   0.0   -0.00018040375656165698
1.5806804052628563e-05   0.0   -0.00018040375656165698
-8.54690285598187e-05   7.476292742631156e-06   -1.6096477853156895e-05
-8.54690285598187e-05   7.476292742631156e-06   -1.6096477853156895e-05
-8.54690285598187e-05   7.476292742631156e-06   -1.6096477853156895e-05
-8.54690285598187e-05   7.476292742631156e-06   -1.6096477853156895e-05
-3.5783741773645945e-05   1.820326512271572e-06   -9.551170942522928e-05
-3.5783741773645945e-05   1.820326512271572e-06   -9.551170942522928e-05
-3.5783741773645945e-05   1.820326512271572e-06   -9.551170942522928e-05
-3.5783741773645945e-05   1.820326512271572e-06   -9.551170942522928e-05
-8.546902855981885e-05   0.0   -0.00018488953220723598
-8.546902855981885e-05   0.0   -0.00018488953220723598
-8.546902855981885e-05   0.0   -0.00018488953220723598
-8.546902855981885e-05   0.0   -0.00018488953220723598
1.580680405262859e-05   7.476292742631156e-06   -1.161070220757824e-05
1.580680405262859e-05   7.476292742631156e-06   -1.161070220757824e-05
1.580680405262859e-05   7.476292742631156e-06   -1.161070220757824e-05
1.580680405262859e-05   7.476292742631156e-06   -1.161070220757824e-05
1.8113369304992648e-05   0.0   -0.00017647678016796
1.8113369304992648e-05   0.0   -0.00017647678016796
1.8113369304992648e-05   0.0   -0.00017647678016796
1.8113369304992648e-05   0.0   -0.00017647678016796
-8.374165771337619e-05   1.2413837771334257e-05   -1.4166704466812494e-05
-8.374165771337619e-05   1.2413837771334257e-05   -1.4166704466812494e-05
-8.374165771337619e-05   1.2413837771334257e-05   -1.4166704466812494e-05
-8.374165771337619e-05   1.2413837771334257e-05   -1.4166704466812494e-05
-3.367782962741303e-05   7.010626699396373e-06   -9.436449130025499e-05
-3.367782962741303e-05   7.010626699396373e-06   -9.436449130025499e-05
-3.367782962741303e-05   7.010626699396373e-06   -9.436449130025499e-05
-3.367782962741303e-05   7.010626699396373e-06   -9.436449130025499e-05
1.193836499741118e-05   0.0   -0.00017752080243665325
1.193836499741118e-05   0.0   -0.00017752080243665325
1.193836499741118e-05   0.0   -0.00017752080243665325
1.193836499741118e-05   0.0   -0.00017752080243665325
0.0001234203493008673   -1.4475706595467371e-05   -4.0291922150670627e-07
0.0001234203493008673   -1.4475706595467371e-05   -4.0291922150670627e-07
0.0001234203493008673   -1.4475706595467371e-05   -4.0291922150670627e-07
0.0001234203493008673   -1.4475706595467371e-05   -4.0291922150670627e-07
0.00012358076554636825   0.0   -0.0001872140776207099
0.00012358076554636825   0.0   -0.0001872140776207099
0.00012358076554636825   0.0   -0.0001872140776207099
0.00012358076554636825   0.0   -0.0001872140776207099
1.4103755143593305e-05   -1.0925592984257462e-05   1.8029621744694195e-06
1.4103755143593305e-05   -1.0925592984257462e-05   1.8029621744694195e-06
1.4103755143593305e-05   -1.0925592984257462e-05   1.8029621744694195e-06
1.4103755143593305e-05   -1.0925592984257462e-05   1.8029621744694195e-06
6.775956527188971e-05   -8.077729320047223e-06   -8.933210623788397e-05
6.775956527188971e-05   -8.077729320047223e-06   -8.933210623788397e-05
6.775956527188971e-05   -8.077729320047223e-06   -8.933210623788397e-05
6.775956527188971e-05   -8.077729320047223e-06   -8.933210623788397e-05
1.4103755143593305e-05   0.0   -0.00018065872183015543
1.4103755143593305e-05   0.0   -0.00018065872183015543
1.4103755143593305e-05   0.0   -0.00018065872183015543
1.4103755143593305e-05   0.0   -0.00018065872183015543
0.00012358076554636825   -1.0925592984257462e-05   -4.752393616085077e-06
0.00012358076554636825   -1.0925592984257462e-05   -4.752393616085077e-06
0.00012358076554636825   -1.0925592984257462e-05   -4.752393616085077e-06
0.00012358076554636825   -1.0925592984257462e-05   -4.752393616085077e-06
0.0001230006024150204   0.0   -0.0001845403082651215
0.0001230006024150204   0.0   -0.0001845403082651215
0.0001230006024150204   0.0   -0.0001845403082651215
0.0001230006024150204   0.0   -0.0001845403082651215
1.580680405262859e-05   -6.894252839107092e-06   -1.747425957670915e-06
1.580680405262859e-05   -6.894252839107092e-06   -1.747425957670915e-06
1.580680405262859e-05   -6.894252839107092e-06   -1.747425957670915e-06
1.580680405262859e-05   -6.894252839107092e-06   -1.747425957670915e-06
6.855217877930686e-05   -3.234655362471773e-06   -9.185214232144914e-05
6.855217877930686e-05   -3.234655362471773e-06   -9.185214232144914e-05
6.855217877930686e-05   -3.234655362471773e-06   -9.185214232144914e-05
6.855217877930686e-05   -3.234655362471773e-06   -9.185214232144914e-05
1.5806804052628576e-05   0.0   -0.00018040375656165711
1.5806804052628576e-05   0.0   -0.00018040375656165711
1.5806804052628576e-05   0.0   -0.00018040375656165711
1.5806804052628576e-05   0.0   -0.00018040375656165711
0.0001230006024150204   -6.894252839107092e-06   -5.883977661135138e-06
0.0001230006024150204   -6.894252839107092e-06   -5.883977661135138e-06
0.0001230006024150204   -6.894252839107092e-06   -5.883977661135138e-06
0.0001230006024150204   -6.894252839107092e-06   -5.883977661135138e-06
0.00012533386059253014   0.0   -0.0001773611387544136
0.00012533386059253014   0.0   -0.0001773611387544136
0.00012533386059253014   0.0   -0.0001773611387544136
0.00012533386059253014   0.0   -0.0001773611387544136
1.8113369304992678e-05   -1.4739309774221515e-06   2.2240386446020966e-06
1.8113369304992678e-05   -1.4739309774221515e-06   2.2240386446020966e-06
1.8113369304992678e-05   -1.4739309774221515e-06   2.2240386446020966e-06
1.8113369304992678e-05   -1.4739309774221515e-06   2.2240386446020966e-06
7.057033232257931e-05   2.5355148393697196e-06   -8.760990054145069e-05
7.057033232257931e-05   2.5355148393697196e-06   -8.760990054145069e-05
7.057033232257931e-05   2.5355148393697196e-06   -8.760990054145069e-05
7.057033232257931e-05   2.5355148393697196e-06   -8.760990054145069e-05
0.0001234203493008673   0.0   -0.00018620622639393367
0.0001234203493008673   0.0   -0.00018620622639393367
0.0001234203493008673   0.0   -0.00018620622639393367
0.0001234203493008673   0.0   -0.00018620622639393367
0.0002783268640816289   -3.665612695829027e-05   4.99776220656963e-05
0.0002783268640816289   -3.665612695829027e-05   4.99776220656963e-05
0.0002783268640816289   -3.665612695829027e-05   4.99776220656963e-05
0.0002783268640816289   -3.665612695829027e-05   4.99776220656963e-05
0.00026131714502421085   0.0   -0.0002059459081646587
0.00026131714502421085   0.0   -0.0002059459081646587
0.00026131714502421085   0.0   -0.0002059459081646587
0.00026131714502421085   0.0   -0.0002059459081646587
0.00012358076554636825   -3.121971757324803e-05   4.2346554842361065e-05
0.00012358076554636825   -3.121971757324803e-05   4.2346554842361065e-05
0.00012358076554636825   -3.121971757324803e-05   4.2346554842361065e-05
0.00012358076554636825   -3.121971757324803e-05   4.2346554842361065e-05
0.00019236874716253909   -1.644973480893755e-05   -8.11620708431765e-05
0.00019236874716253909   -1.644973480893755e-05   -8.11620708431765e-05
0.00019236874716253909   -1.644973480893755e-05   -8.11620708431765e-05
0.00019236874716253909   -1.644973480893755e-05   -8.11620708431765e-05
0.00012358076554636814   0.0   -0.00018721407762070975
0.00012358076554636814   0.0   -0.00018721407762070975
0.00012358076554636814   0.0   -0.00018721407762070975
0.00012358076554636814   0.0   -0.00018721407762070975
0.00026131714502420993   -3.1219717573247865e-05   2.361472429841219e-05
0.00026131714502420993   -3.1219717573247865e-05   2.361472429841219e-05
0.00026131714502420993   -3.1219717573247865e-05   2.361472429841219e-05
0.00026131714502420993   -3.1219717573247865e-05   2.361472429841219e-05
0.00025345029936577035   0.0   -0.00020166362223030245
0.00025345029936577035   0.0   -0.00020166362223030245
0.00025345029936577035   0.0   -0.00020166362223030245
0.00025345029936577035   0.0   -0.00020166362223030245
0.0001230006024150204   -2.8538856608634872e-05   3.287585331946161e-05
0.0001230006024150204   -2.8538856608634872e-05   3.287585331946161e-05
0.0001230006024150204   -2.8538856608634872e-05   3.287585331946161e-05
0.0001230006024150204   -2.8538856608634872e-05   3.287585331946161e-05
0.0001885155324560692   -1.204128717466045e-05   -8.62142384093376e-05
0.0001885155324560692   -1.204128717466045e-05   -8.62142384093376e-05
0.0001885155324560692   -1.204128717466045e-05   -8.62142384093376e-05
0.0001885155324560692   -1.204128717466045e-05   -8.62142384093376e-05
0.0001230006024150204   0.0   -0.0001845403082651215
0.0001230006024150204   0.0   -0.0001845403082651215
0.0001230006024150204   0.0   -0.0001845403082651215
0.0001230006024150204   0.0   -0.0001845403082651215
0.00025345029936576943   -2.8538856608634764e-05   1.5752539354280646e-05
0.00025345029936576943   -2.8538856608634764e-05   1.5752539354280646e-05
0.00025345029936576943   -2.8538856608634764e-05   1.5752539354280646e-05
0.00025345029936576943   -2.8538856608634764e-05   1.5752539354280646e-05
0.00024177434445549618   0.0   -0.00019069178498523268
0.00024177434445549618   0.0   -0.00019069178498523268
0.00024177434445549618   0.0   -0.00019069178498523268
0.00024177434445549618   0.0   -0.00019069178498523268
0.00012533386059253014   -2.2217743718032357e-05   1.6706334350530483e-05
0.00012533386059253014   -2.2217743718032357e-05   1.6706334350530483e-05
0.00012533386059253014   -2.2217743718032357e-05   1.6706334350530483e-05
0.00012533386059253014   -2.2217743718032357e-05   1.6706334350530483e-05
0.0001823874734352585   -5.126230600092913e-06   -8.863792825811371e-05
0.0001823874734352585   -5.126230600092913e-06   -8.863792825811371e-05
0.0001823874734352585   -5.126230600092913e-06   -8.863792825811371e-05
0.0001823874734352585   -5.126230600092913e-06   -8.863792825811371e-05
-0.0002723889893457828   3.480186288438053e-05   -0.00017831899635881247
-0.0002723889893457828   3.480186288438053e-05   -0.00017831899635881247
-0.0002723889893457828   3.480186288438053e-05   -0.00017831899635881247