<?xml version="1.0"?> 
<VTKFile type="UnstructuredGrid"> 
   <UnstructuredGrid> 
      <Piece NumberOfPoints="6000"  NumberOfCells="1500">  
          <Points>  
             <DataArray type="Float64" NumberOfComponents="3" format="ascii">   
-500.0   0.0   0.0
-450.0   0.0   0.0
-500.0   30.0   0.0
-500.0   0.0   16.666666666666668
-450.0   0.0   0.0
-450.0   30.0   0.0
-500.0   30.0   0.0
-450.0   30.0   16.666666666666668
-500.0   0.0   16.666666666666668
-500.0   30.0   16.666666666666668
-450.0   30.0   16.666666666666668
-500.0   30.0   0.0
-500.0   0.0   16.666666666666668
-450.0   30.0   16.666666666666668
-450.0   0.0   16.666666666666668
-450.0   0.0   0.0
-500.0   0.0   16.666666666666668
-450.0   30.0   16.666666666666668
-450.0   0.0   0.0
-500.0   30.0   0.0
-500.0   0.0   16.666666666666668
-450.0   0.0   16.666666666666668
-500.0   30.0   16.666666666666668
-500.0   0.0   33.333333333333336
-450.0   0.0   16.666666666666668
-450.0   30.0   16.666666666666668
-500.0   30.0   16.666666666666668
-450.0   30.0   33.333333333333336
-500.0   0.0   33.333333333333336
-500.0   30.0   33.333333333333336
-450.0   30.0   33.333333333333336
-500.0   30.0   16.666666666666668
-500.0   0.0   33.333333333333336
-450.0   30.0   33.333333333333336
-450.0   0.0   33.333333333333336
-450.0   0.0   16.666666666666668
-500.0   0.0   33.333333333333336
-450.0   30.0   33.333333333333336
-450.0   0.0   16.666666666666668
-500.0   30.0   16.666666666666668
-500.0   0.0   33.333333333333336
-450.0   0.0   33.333333333333336
-500.0   30.0   33.333333333333336
-500.0   0.0   50.0
-450.0   0.0   33.333333333333336
-450.0   30.0   33.333333333333336
-500.0   30.0   33.333333333333336
-450.0   30.0   50.0
-500.0   0.0   50.0
-500.0   30.0   50.0
-450.0   30.0   50.0
-500.0   30.0   33.333333333333336
-500.0   0.0   50.0
-450.0   30.0   50.0
-450.0   0.0   50.0
-450.0   0.0   33.333333333333336
-500.0   0.0   50.0
-450.0   30.0   50.0
-450.0   0.0   33.333333333333336
-500.0   30.0   33.333333333333336
-500.0   30.0   0.0
-450.0   30.0   0.0
-500.0   60.0   0.0
-500.0   30.0   16.666666666666668
-450.0   30.0   0.0
-450.0   60.0   0.0
-500.0   60.0   0.0
-450.0   60.0   16.666666666666668
-500.0   30.0   16.666666666666668
-500.0   60.0   16.666666666666668
-450.0   60.0   16.666666666666668
-500.0   60.0   0.0
-500.0   30.0   16.666666666666668
-450.0   60.0   16.666666666666668
-450.0   30.0   16.666666666666668
-450.0   30.0   0.0
-500.0   30.0   16.666666666666668
-450.0   60.0   16.666666666666668
-450.0   30.0   0.0
-500.0   60.0   0.0
-500.0   30.0   16.666666666666668
-450.0   30.0   16.666666666666668
-500.0   60.0   16.666666666666668
-500.0   30.0   33.333333333333336
-450.0   30.0   16.666666666666668
-450.0   60.0   16.666666666666668
-500.0   60.0   16.666666666666668
-450.0   60.0   33.333333333333336
-500.0   30.0   33.333333333333336
-500.0   60.0   33.333333333333336
-450.0   60.0   33.333333333333336
-500.0   60.0   16.666666666666668
-500.0   30.0   33.333333333333336
-450.0   60.0   33.333333333333336
-450.0   30.0   33.333333333333336
-450.0   30.0   16.666666666666668
-500.0   30.0   33.333333333333336
-450.0   60.0   33.333333333333336
-450.0   30.0   16.666666666666668
-500.0   60.0   16.666666666666668
-500.0   30.0   33.333333333333336
-450.0   30.0   33.333333333333336
-500.0   60.0   33.333333333333336
-500.0   30.0   50.0
-450.0   30.0   33.333333333333336
-450.0   60.0   33.333333333333336
-500.0   60.0   33.333333333333336
-450.0   60.0   50.0
-500.0   30.0   50.0
-500.0   60.0   50.0
-450.0   60.0   50.0
-500.0   60.0   33.333333333333336
-500.0   30.0   50.0
-450.0   60.0   50.0
-450.0   30.0   50.0
-450.0   30.0   33.333333333333336
-500.0   30.0   50.0
-450.0   60.0   50.0
-450.0   30.0   33.333333333333336
-500.0   60.0   33.333333333333336
-500.0   60.0   0.0
-450.0   60.0   0.0
-500.0   90.0   0.0
-500.0   60.0   16.666666666666668
-450.0   60.0   0.0
-450.0   90.0   0.0
-500.0   90.0   0.0
-450.0   90.0   16.666666666666668
-500.0   60.0   16.666666666666668
-500.0   90.0   16.666666666666668
-450.0   90.0   16.666666666666668
-500.0   90.0   0.0
-500.0   60.0   16.666666666666668
-450.0   90.0   16.666666666666668
-450.0   60.0   16.666666666666668
-450.0   60.0   0.0
-500.0   60.0   16.666666666666668
-450.0   90.0   16.666666666666668
-450.0   60.0   0.0
-500.0   90.0   0.0
-500.0   60.0   16.666666666666668
-450.0   60.0   16.666666666666668
-500.0   90.0   16.666666666666668
-500.0   60.0   33.333333333333336
-450.0   60.0   16.666666666666668
-450.0   90.0   16.666666666666668
-500.0   90.0   16.666666666666668
-450.0   90.0   33.333333333333336
-500.0   60.0   33.333333333333336
-500.0   90.0   33.333333333333336
-450.0   90.0   33.333333333333336
-500.0   90.0   16.666666666666668
-500.0   60.0   33.333333333333336
-450.0   90.0   33.333333333333336
-450.0   60.0   33.333333333333336
-450.0   60.0   16.666666666666668
-500.0   60.0   33.333333333333336
-450.0   90.0   33.333333333333336
-450.0   60.0   16.666666666666668
-500.0   90.0   16.666666666666668
-500.0   60.0   33.333333333333336
-450.0   60.0   33.333333333333336
-500.0   90.0   33.333333333333336
-500.0   60.0   50.0
-450.0   60.0   33.333333333333336
-450.0   90.0   33.333333333333336
-500.0   90.0   33.333333333333336
-450.0   90.0   50.0
-500.0   60.0   50.0
-500.0   90.0   50.0
-450.0   90.0   50.0
-500.0   90.0   33.333333333333336
-500.0   60.0   50.0
-450.0   90.0   50.0
-450.0   60.0   50.0
-450.0   60.0   33.333333333333336
-500.0   60.0   50.0
-450.0   90.0   50.0
-450.0   60.0   33.333333333333336
-500.0   90.0   33.333333333333336
-500.0   90.0   0.0
-450.0   90.0   0.0
-500.0   120.0   0.0
-500.0   90.0   16.666666666666668
-450.0   90.0   0.0
-450.0   120.0   0.0
-500.0   120.0   0.0
-450.0   120.0   16.666666666666668
-500.0   90.0   16.666666666666668
-500.0   120.0   16.666666666666668
-450.0   120.0   16.666666666666668
-500.0   120.0   0.0
-500.0   90.0   16.666666666666668
-450.0   120.0   16.666666666666668
-450.0   90.0   16.666666666666668
-450.0   90.0   0.0
-500.0   90.0   16.666666666666668
-450.0   120.0   16.666666666666668
-450.0   90.0   0.0
-500.0   120.0   0.0
-500.0   90.0   16.666666666666668
-450.0   90.0   16.666666666666668
-500.0   120.0   16.666666666666668
-500.0   90.0   33.333333333333336
-450.0   90.0   16.666666666666668
-450.0   120.0   16.666666666666668
-500.0   120.0   16.666666666666668
-450.0   120.0   33.333333333333336
-500.0   90.0   33.333333333333336
-500.0   120.0   33.333333333333336
-450.0   120.0   33.333333333333336
-500.0   120.0   16.666666666666668
-500.0   90.0   33.333333333333336
-450.0   120.0   33.333333333333336
-450.0   90.0   33.333333333333336
-450.0   90.0   16.666666666666668
-500.0   90.0   33.333333333333336
-450.0   120.0   33.333333333333336
-450.0   90.0   16.666666666666668
-500.0   120.0   16.666666666666668
-500.0   90.0   33.333333333333336
-450.0   90.0   33.333333333333336
-500.0   120.0   33.333333333333336
-500.0   90.0   50.0
-450.0   90.0   33.333333333333336
-450.0   120.0   33.333333333333336
-500.0   120.0   33.333333333333336
-450.0   120.0   50.0
-500.0   90.0   50.0
-500.0   120.0   50.0
-450.0   120.0   50.0
-500.0   120.0   33.333333333333336
-500.0   90.0   50.0
-450.0   120.0   50.0
-450.0   90.0   50.0
-450.0   90.0   33.333333333333336
-500.0   90.0   50.0
-450.0   120.0   50.0
-450.0   90.0   33.333333333333336
-500.0   120.0   33.333333333333336
-500.0   120.0   0.0
-450.0   120.0   0.0
-500.0   150.0   0.0
-500.0   120.0   16.666666666666668
-450.0   120.0   0.0
-450.0   150.0   0.0
-500.0   150.0   0.0
-450.0   150.0   16.666666666666668
-500.0   120.0   16.666666666666668
-500.0   150.0   16.666666666666668
-450.0   150.0   16.666666666666668
-500.0   150.0   0.0
-500.0   120.0   16.666666666666668
-450.0   150.0   16.666666666666668
-450.0   120.0   16.666666666666668
-450.0   120.0   0.0
-500.0   120.0   16.666666666666668
-450.0   150.0   16.666666666666668
-450.0   120.0   0.0
-500.0   150.0   0.0
-500.0   120.0   16.666666666666668
-450.0   120.0   16.666666666666668
-500.0   150.0   16.666666666666668
-500.0   120.0   33.333333333333336
-450.0   120.0   16.666666666666668
-450.0   150.0   16.666666666666668
-500.0   150.0   16.666666666666668
-450.0   150.0   33.333333333333336
-500.0   120.0   33.333333333333336
-500.0   150.0   33.333333333333336
-450.0   150.0   33.333333333333336
-500.0   150.0   16.666666666666668
-500.0   120.0   33.333333333333336
-450.0   150.0   33.333333333333336
-450.0   120.0   33.333333333333336
-450.0   120.0   16.666666666666668
-500.0   120.0   33.333333333333336
-450.0   150.0   33.333333333333336
-450.0   120.0   16.666666666666668
-500.0   150.0   16.666666666666668
-500.0   120.0   33.333333333333336
-450.0   120.0   33.333333333333336
-500.0   150.0   33.333333333333336
-500.0   120.0   50.0
-450.0   120.0   33.333333333333336
-450.0   150.0   33.333333333333336
-500.0   150.0   33.333333333333336
-450.0   150.0   50.0
-500.0   120.0   50.0
-500.0   150.0   50.0
-450.0   150.0   50.0
-500.0   150.0   33.333333333333336
-500.0   120.0   50.0
-450.0   150.0   50.0
-450.0   120.0   50.0
-450.0   120.0   33.333333333333336
-500.0   120.0   50.0
-450.0   150.0   50.0
-450.0   120.0   33.333333333333336
-500.0   150.0   33.333333333333336
-450.0   0.0   0.0
-400.0   0.0   0.0
-450.0   30.0   0.0
-450.0   0.0   16.666666666666668
-400.0   0.0   0.0
-400.0   30.0   0.0
-450.0   30.0   0.0
-400.0   30.0   16.666666666666668
-450.0   0.0   16.666666666666668
-450.0   30.0   16.666666666666668
-400.0   30.0   16.666666666666668
-450.0   30.0   0.0
-450.0   0.0   16.666666666666668
-400.0   30.0   16.666666666666668
-400.0   0.0   16.666666666666668
-400.0   0.0   0.0
-450.0   0.0   16.666666666666668
-400.0   30.0   16.666666666666668
-400.0   0.0   0.0
-450.0   30.0   0.0
-450.0   0.0   16.666666666666668
-400.0   0.0   16.666666666666668
-450.0   30.0   16.666666666666668
[...]
          <PointData>  
             <DataArray type="Float64" NumberOfComponents="3" Name="Strains" format="ascii">   
-0.0006263538703274182   0.0   -0.0004096035263897369
-0.0006263538703274182   0.0   -0.0004096035263897369
-0.0006263538703274182   0.0   -0.0004096035263897369
-0.0006263538703274182   0.0   -0.0004096035263897369
-0.0003987068735498437   6.958353287009843e-05   1.1558254628278803e-05
-0.0003987068735498437   6.958353287009843e-05   1.1558254628278803e-05
-0.0003987068735498437   6.958353287009843e-05   1.1558254628278803e-05
-0.0003987068735498437   6.958353287009843e-05   1.1558254628278803e-05
-0.00039092373339936066   0.0   -0.00038639084066641785
-0.00039092373339936066   0.0   -0.00038639084066641785
-0.00039092373339936066   0.0   -0.00038639084066641785
-0.00039092373339936066   0.0   -0.00038639084066641785
-0.0006556350915579047   8.341049054337926e-05   4.748461938463124e-06
-0.0006556350915579047   8.341049054337926e-05   4.748461938463124e-06
-0.0006556350915579047   8.341049054337926e-05   4.748461938463124e-06
-0.0006556350915579047   8.341049054337926e-05   4.748461938463124e-06
-0.0005086388018633885   1.934390476943245e-05   -0.00020180540275469558
-0.0005086388018633885   1.934390476943245e-05   -0.00020180540275469558
-0.0005086388018633885   1.934390476943245e-05   -0.00020180540275469558
-0.0005086388018633885   1.934390476943245e-05   -0.00020180540275469558
-0.0006556350915579059   0.0   -0.0004364371349924456
-0.0006556350915579059   0.0   -0.0004364371349924456
-0.0006556350915579059   0.0   -0.0004364371349924456
-0.0006556350915579059   0.0   -0.0004364371349924456
-0.00039092373339936066   8.341049054337948e-05   5.479475626449064e-05
-0.00039092373339936066   8.341049054337948e-05   5.479475626449064e-05
-0.00039092373339936066   8.341049054337948e-05   5.479475626449064e-05
-0.00039092373339936066   8.341049054337948e-05   5.479475626449064e-05
-0.0003921364938206074   0.0   -0.0003958780156387278
-0.0003921364938206074   0.0   -0.0003958780156387278
-0.0003921364938206074   0.0   -0.0003958780156387278
-0.0003921364938206074   0.0   -0.0003958780156387278
-0.0006762496365794417   8.933635447080327e-05   2.4042076276849364e-05
-0.0006762496365794417   8.933635447080327e-05   2.4042076276849364e-05
-0.0006762496365794417   8.933635447080327e-05   2.4042076276849364e-05
-0.0006762496365794417   8.933635447080327e-05   2.4042076276849364e-05
-0.0005238857926892557   3.379926612809807e-05   -0.00019657541053450412
-0.0005238857926892557   3.379926612809807e-05   -0.00019657541053450412
-0.0005238857926892557   3.379926612809807e-05   -0.00019657541053450412
-0.0005238857926892557   3.379926612809807e-05   -0.00019657541053450412
-0.0006762496365794429   0.0   -0.0004494798283212099
-0.0006762496365794429   0.0   -0.0004494798283212099
-0.0006762496365794429   0.0   -0.0004494798283212099
-0.0006762496365794429   0.0   -0.0004494798283212099
-0.0003921364938206074   8.933635447080338e-05   7.764388895933124e-05
-0.0003921364938206074   8.933635447080338e-05   7.764388895933124e-05
-0.0003921364938206074   8.933635447080338e-05   7.764388895933124e-05
-0.0003921364938206074   8.933635447080338e-05   7.764388895933124e-05
-0.0003920547017004932   0.0   -0.00039829845023679446
-0.0003920547017004932   0.0   -0.00039829845023679446
-0.0003920547017004932   0.0   -0.00039829845023679446
-0.0003920547017004932   0.0   -0.00039829845023679446
-0.0007205495985912408   0.00010169305492303805   8.817721162729711e-05
-0.0007205495985912408   0.00010169305492303805   8.817721162729711e-05
-0.0007205495985912408   0.00010169305492303805   8.817721162729711e-05
-0.0007205495985912408   0.00010169305492303805   8.817721162729711e-05
-0.0005341521691399671   4.265114840367953e-05   -0.00018706002687987692
-0.0005341521691399671   4.265114840367953e-05   -0.00018706002687987692
-0.0005341521691399671   4.265114840367953e-05   -0.00018706002687987692
-0.0005341521691399671   4.265114840367953e-05   -0.00018706002687987692
-0.0003987068735498444   0.0   -0.00036785340666767774
-0.0003987068735498444   0.0   -0.00036785340666767774
-0.0003987068735498444   0.0   -0.00036785340666767774
-0.0003987068735498444   0.0   -0.00036785340666767774
-0.00018144572817014343   2.5558230924426135e-05   9.583440853145947e-06
-0.00018144572817014343   2.5558230924426135e-05   9.583440853145947e-06
-0.00018144572817014343   2.5558230924426135e-05   9.583440853145947e-06
-0.00018144572817014343   2.5558230924426135e-05   9.583440853145947e-06
-0.0001746194236693023   0.0   -0.00036459728710536735
-0.0001746194236693023   0.0   -0.00036459728710536735
-0.0001746194236693023   0.0   -0.00036459728710536735
-0.0001746194236693023   0.0   -0.00036459728710536735
-0.00039092373339936066   3.632258926841757e-05   -2.588365778298735e-05
-0.00039092373339936066   3.632258926841757e-05   -2.588365778298735e-05
-0.00039092373339936066   3.632258926841757e-05   -2.588365778298735e-05
-0.00039092373339936066   3.632258926841757e-05   -2.588365778298735e-05
-0.0002866631486095728   2.713432968592022e-06   -0.0001794858053194037
-0.0002866631486095728   2.713432968592022e-06   -0.0001794858053194037
-0.0002866631486095728   2.713432968592022e-06   -0.0001794858053194037
-0.0002866631486095728   2.713432968592022e-06   -0.0001794858053194037
-0.0003909237333993603   0.0   -0.0003863908406664175
-0.0003909237333993603   0.0   -0.0003863908406664175
-0.0003909237333993603   0.0   -0.0003863908406664175
-0.0003909237333993603   0.0   -0.0003863908406664175
-0.0001746194236693023   3.632258926841757e-05   -4.0901042219367956e-06
-0.0001746194236693023   3.632258926841757e-05   -4.0901042219367956e-06
-0.0001746194236693023   3.632258926841757e-05   -4.0901042219367956e-06
-0.0001746194236693023   3.632258926841757e-05   -4.0901042219367956e-06
-0.00017083064315485307   0.0   -0.0003691967740703493
-0.00017083064315485307   0.0   -0.0003691967740703493
-0.00017083064315485307   0.0   -0.0003691967740703493
-0.00017083064315485307   0.0   -0.0003691967740703493
-0.0003921364938206074   4.446873594729755e-05   -2.703493119580395e-05
-0.0003921364938206074   4.446873594729755e-05   -2.703493119580395e-05
-0.0003921364938206074   4.446873594729755e-05   -2.703493119580395e-05
-0.0003921364938206074   4.446873594729755e-05   -2.703493119580395e-05
-0.00028087718827710627   1.4328388830057157e-05   -0.00019438289883129325
-0.00028087718827710627   1.4328388830057157e-05   -0.00019438289883129325
-0.00028087718827710627   1.4328388830057157e-05   -0.00019438289883129325
-0.00028087718827710627   1.4328388830057157e-05   -0.00019438289883129325
-0.0003921364938206074   0.0   -0.0003958780156387278
-0.0003921364938206074   0.0   -0.0003958780156387278
-0.0003921364938206074   0.0   -0.0003958780156387278
-0.0003921364938206074   0.0   -0.0003958780156387278
-0.00017083064315485307   4.446873594729755e-05   -3.5368962742550643e-07
-0.00017083064315485307   4.446873594729755e-05   -3.5368962742550643e-07
-0.00017083064315485307   4.446873594729755e-05   -3.5368962742550643e-07
-0.00017083064315485307   4.446873594729755e-05   -3.5368962742550643e-07
-0.0001673988804074749   0.0   -0.000367267407561348
-0.0001673988804074749   0.0   -0.000367267407561348
-0.0001673988804074749   0.0   -0.000367267407561348
-0.0001673988804074749   0.0   -0.000367267407561348
-0.00039205470170049217   5.171840445907677e-05   -2.387208141509708e-05
-0.00039205470170049217   5.171840445907677e-05   -2.387208141509708e-05
-0.00039205470170049217   5.171840445907677e-05   -2.387208141509708e-05
-0.00039205470170049217   5.171840445907677e-05   -2.387208141509708e-05
-0.00027976768711404106   2.384217339781628e-05   -0.00019429136708909415
-0.00027976768711404106   2.384217339781628e-05   -0.00019429136708909415
-0.00027976768711404106   2.384217339781628e-05   -0.00019429136708909415
-0.00027976768711404106   2.384217339781628e-05   -0.00019429136708909415
-0.00018144572817014375   0.0   -0.00035251846811302205
-0.00018144572817014375   0.0   -0.00035251846811302205
-0.00018144572817014375   0.0   -0.00035251846811302205
-0.00018144572817014375   0.0   -0.00035251846811302205
2.39194948265252e-05   -3.245989550092719e-06   -1.2190690181962455e-05
2.39194948265252e-05   -3.245989550092719e-06   -1.2190690181962455e-05
2.39194948265252e-05   -3.245989550092719e-06   -1.2190690181962455e-05
2.39194948265252e-05   -3.245989550092719e-06   -1.2190690181962455e-05
2.8225589856371942e-05   0.0   -0.000360741079213065
2.8225589856371942e-05   0.0   -0.000360741079213065
2.8225589856371942e-05   0.0   -0.000360741079213065
2.8225589856371942e-05   0.0   -0.000360741079213065
-0.0001746194236693023   6.427013153835156e-06   -2.652226456257683e-05
-0.0001746194236693023   6.427013153835156e-06   -2.652226456257683e-05
-0.0001746194236693023   6.427013153835156e-06   -2.652226456257683e-05
-0.0001746194236693023   6.427013153835156e-06   -2.652226456257683e-05
-7.661006915688572e-05   -6.852175916703467e-06   -0.00018190367530761386
-7.661006915688572e-05   -6.852175916703467e-06   -0.00018190367530761386
-7.661006915688572e-05   -6.852175916703467e-06   -0.00018190367530761386
-7.661006915688572e-05   -6.852175916703467e-06   -0.00018190367530761386
-0.0001746194236693023   0.0   -0.00036459728710536735
-0.0001746194236693023   0.0   -0.00036459728710536735
-0.0001746194236693023   0.0   -0.00036459728710536735
-0.0001746194236693023   0.0   -0.00036459728710536735
2.8225589856371993e-05   6.427013153835156e-06   -2.2666056670275653e-05
2.8225589856371993e-05   6.427013153835156e-06   -2.2666056670275653e-05
2.8225589856371993e-05   6.427013153835156e-06   -2.2666056670275653e-05
2.8225589856371993e-05   6.427013153835156e-06   -2.2666056670275653e-05
3.160965598557225e-05   0.0   -0.0003602334539396969
3.160965598557225e-05   0.0   -0.0003602334539396969
3.160965598557225e-05   0.0   -0.0003602334539396969
3.160965598557225e-05   0.0   -0.0003602334539396969
-0.00017083064315485277   1.4938866884419539e-05   -3.179627550297363e-05
-0.00017083064315485277   1.4938866884419539e-05   -3.179627550297363e-05
-0.00017083064315485277   1.4938866884419539e-05   -3.179627550297363e-05
-0.00017083064315485277   1.4938866884419539e-05   -3.179627550297363e-05
-7.1504883841865e-05   3.636527638058195e-06   -0.00019055780414347015
-7.1504883841865e-05   3.636527638058195e-06   -0.00019055780414347015
-7.1504883841865e-05   3.636527638058195e-06   -0.00019055780414347015
-7.1504883841865e-05   3.636527638058195e-06   -0.00019055780414347015
-0.00017083064315485307   0.0   -0.0003691967740703493
-0.00017083064315485307   0.0   -0.0003691967740703493
-0.00017083064315485307   0.0   -0.0003691967740703493
-0.00017083064315485307   0.0   -0.0003691967740703493
3.16096559855723e-05   1.4938866884419539e-05   -2.2832955372321965e-05
3.16096559855723e-05   1.4938866884419539e-05   -2.2832955372321965e-05
3.16096559855723e-05   1.4938866884419539e-05   -2.2832955372321965e-05
3.16096559855723e-05   1.4938866884419539e-05   -2.2832955372321965e-05
3.619954334696353e-05   0.0   -0.0003523848155178582
3.619954334696353e-05   0.0   -0.0003523848155178582
3.619954334696353e-05   0.0   -0.0003523848155178582
3.619954334696353e-05   0.0   -0.0003523848155178582
-0.00016739888040747473   2.480432007248253e-05   -2.7936701303950566e-05
-0.00016739888040747473   2.480432007248253e-05   -2.7936701303950566e-05
-0.00016739888040747473   2.480432007248253e-05   -2.7936701303950566e-05
-0.00016739888040747473   2.480432007248253e-05   -2.7936701303950566e-05
-6.731554990394462e-05   1.4009965460408716e-05   -0.00018826563937592302
-6.731554990394462e-05   1.4009965460408716e-05   -0.00018826563937592302
-6.731554990394462e-05   1.4009965460408716e-05   -0.00018826563937592302
-6.731554990394462e-05   1.4009965460408716e-05   -0.00018826563937592302
2.3919494826525243e-05   0.0   -0.0003544660618430777
2.3919494826525243e-05   0.0   -0.0003544660618430777
2.3919494826525243e-05   0.0   -0.0003544660618430777
2.3919494826525243e-05   0.0   -0.0003544660618430777
0.0002467465081860339   -2.8940264023330736e-05   -4.518646578947623e-07
0.0002467465081860339   -2.8940264023330736e-05   -4.518646578947623e-07
0.0002467465081860339   -2.8940264023330736e-05   -4.518646578947623e-07
0.0002467465081860339   -2.8940264023330736e-05   -4.518646578947623e-07
0.0002470429534330101   0.0   -0.0003738500087269151
0.0002470429534330101   0.0   -0.0003738500087269151
0.0002470429534330101   0.0   -0.0003738500087269151
0.0002470429534330101   0.0   -0.0003738500087269151
2.822558985637204e-05   -2.184821585641476e-05   3.954526747997125e-06
2.822558985637204e-05   -2.184821585641476e-05   3.954526747997125e-06
2.822558985637204e-05   -2.184821585641476e-05   3.954526747997125e-06
2.822558985637204e-05   -2.184821585641476e-05   3.954526747997125e-06
0.00013548122412976768   -1.615328906986454e-05   -0.00017822181977959222
0.00013548122412976768   -1.615328906986454e-05   -0.00017822181977959222
0.00013548122412976768   -1.615328906986454e-05   -0.00017822181977959222
0.00013548122412976768   -1.615328906986454e-05   -0.00017822181977959222
2.822558985637204e-05   0.0   -0.00036074107921306626
2.822558985637204e-05   0.0   -0.00036074107921306626
2.822558985637204e-05   0.0   -0.00036074107921306626
2.822558985637204e-05   0.0   -0.00036074107921306626
0.0002470429534330101   -2.184821585641476e-05   -9.15440276585169e-06
0.0002470429534330101   -2.184821585641476e-05   -9.15440276585169e-06
0.0002470429534330101   -2.184821585641476e-05   -9.15440276585169e-06
0.0002470429534330101   -2.184821585641476e-05   -9.15440276585169e-06
0.0002458622628942452   0.0   -0.0003685105522159978
0.0002458622628942452   0.0   -0.0003685105522159978
0.0002458622628942452   0.0   -0.0003685105522159978
0.0002458622628942452   0.0   -0.0003685105522159978
3.16096559855723e-05   -1.3795163793833788e-05   -3.1457757585761153e-06
3.16096559855723e-05   -1.3795163793833788e-05   -3.1457757585761153e-06
3.16096559855723e-05   -1.3795163793833788e-05   -3.1457757585761153e-06
3.16096559855723e-05   -1.3795163793833788e-05   -3.1457757585761153e-06
0.0001370439263753086   -6.474560835776331e-06   -0.0001832619215163043
0.0001370439263753086   -6.474560835776331e-06   -0.0001832619215163043
0.0001370439263753086   -6.474560835776331e-06   -0.0001832619215163043
0.0001370439263753086   -6.474560835776331e-06   -0.0001832619215163043
3.1609655985572274e-05   0.0   -0.0003602334539396972
3.1609655985572274e-05   0.0   -0.0003602334539396972
3.1609655985572274e-05   0.0   -0.0003602334539396972
3.1609655985572274e-05   0.0   -0.0003602334539396972
0.0002458622628942452   -1.3795163793833788e-05   -1.1422874034876403e-05
0.0002458622628942452   -1.3795163793833788e-05   -1.1422874034876403e-05
0.0002458622628942452   -1.3795163793833788e-05   -1.1422874034876403e-05
0.0002458622628942452   -1.3795163793833788e-05   -1.1422874034876403e-05
0.00025050603301955096   0.0   -0.0003541645273244334
0.00025050603301955096   0.0   -0.0003541645273244334
0.00025050603301955096   0.0   -0.0003541645273244334
0.00025050603301955096   0.0   -0.0003541645273244334
3.619954334696359e-05   -2.966186344290989e-06   4.792667269786752e-06
3.619954334696359e-05   -2.966186344290989e-06   4.792667269786752e-06
3.619954334696359e-05   -2.966186344290989e-06   4.792667269786752e-06
3.619954334696359e-05   -2.966186344290989e-06   4.792667269786752e-06
0.0001410578445025615   5.057438846053453e-06   -0.00017478534310374962
0.0001410578445025615   5.057438846053453e-06   -0.00017478534310374962
0.0001410578445025615   5.057438846053453e-06   -0.00017478534310374962
0.0001410578445025615   5.057438846053453e-06   -0.00017478534310374962
0.0002467465081860339   0.0   -0.0003718302202570761
0.0002467465081860339   0.0   -0.0003718302202570761
0.0002467465081860339   0.0   -0.0003718302202570761
0.0002467465081860339   0.0   -0.0003718302202570761
0.0005563130205882447   -7.326769726816857e-05   0.00010015334871904373
0.0005563130205882447   -7.326769726816857e-05   0.00010015334871904373
0.0005563130205882447   -7.326769726816857e-05   0.00010015334871904373
0.0005563130205882447   -7.326769726816857e-05   0.00010015334871904373
0.0005222828509466483   0.0   -0.0004112985987914818
0.0005222828509466483   0.0   -0.0004112985987914818
0.0005222828509466483   0.0   -0.0004112985987914818
0.0005222828509466483   0.0   -0.0004112985987914818
0.0002470429534330101   -6.241431677427782e-05   8.488315379581507e-05
0.0002470429534330101   -6.241431677427782e-05   8.488315379581507e-05
0.0002470429534330101   -6.241431677427782e-05   8.488315379581507e-05
0.0002470429534330101   -6.241431677427782e-05   8.488315379581507e-05
0.0003845146795663411   -3.289031544533808e-05   -0.00016195079055710015
0.0003845146795663411   -3.289031544533808e-05   -0.00016195079055710015
0.0003845146795663411   -3.289031544533808e-05   -0.00016195079055710015
0.0003845146795663411   -3.289031544533808e-05   -0.00016195079055710015
0.0002470429534330099   0.0   -0.00037385000872691476
0.0002470429534330099   0.0   -0.00037385000872691476
0.0002470429534330099   0.0   -0.00037385000872691476
0.0002470429534330099   0.0   -0.00037385000872691476
0.0005222828509466465   -6.24143167742776e-05   4.743456373124827e-05
0.0005222828509466465   -6.24143167742776e-05   4.743456373124827e-05
0.0005222828509466465   -6.24143167742776e-05   4.743456373124827e-05
0.0005222828509466465   -6.24143167742776e-05   4.743456373124827e-05
0.0005065347831648834   0.0   -0.0004027461314396701
0.0005065347831648834   0.0   -0.0004027461314396701
0.0005065347831648834   0.0   -0.0004027461314396701
0.0005065347831648834   0.0   -0.0004027461314396701
0.0002458622628942452   -5.705929870612053e-05   6.594364823506583e-05
0.0002458622628942452   -5.705929870612053e-05   6.594364823506583e-05
0.0002458622628942452   -5.705929870612053e-05   6.594364823506583e-05
0.0002458622628942452   -5.705929870612053e-05   6.594364823506583e-05
0.00037678886829894655   -2.4080102260629218e-05   -0.00017205487864006458
0.00037678886829894655   -2.4080102260629218e-05   -0.00017205487864006458
0.00037678886829894655   -2.4080102260629218e-05   -0.00017205487864006458
0.00037678886829894655   -2.4080102260629218e-05   -0.00017205487864006458
0.0002458622628942452   0.0   -0.0003685105522159978
0.0002458622628942452   0.0   -0.0003685105522159978
0.0002458622628942452   0.0   -0.0003685105522159978
0.0002458622628942452   0.0   -0.0003685105522159978
0.0005065347831648817   -5.7059298706120315e-05   3.170806901139336e-05
0.0005065347831648817   -5.7059298706120315e-05   3.170806901139336e-05
0.0005065347831648817   -5.7059298706120315e-05   3.170806901139336e-05
0.0005065347831648817   -5.7059298706120315e-05   3.170806901139336e-05
0.0004831760592700565   0.0   -0.00038082625406255665
0.0004831760592700565   0.0   -0.00038082625406255665
0.0004831760592700565   0.0   -0.00038082625406255665
0.0004831760592700565   0.0   -0.00038082625406255665
0.00025050603301955096   -4.443621123020652e-05   3.361884975974387e-05
0.00025050603301955096   -4.443621123020652e-05   3.361884975974387e-05
0.00025050603301955096   -4.443621123020652e-05   3.361884975974387e-05
0.00025050603301955096   -4.443621123020652e-05   3.361884975974387e-05
0.00036451916108215125   -1.026308487213286e-05   -0.000176906906159434
0.00036451916108215125   -1.026308487213286e-05   -0.000176906906159434
0.00036451916108215125   -1.026308487213286e-05   -0.000176906906159434
0.00036451916108215125   -1.026308487213286e-05   -0.000176906906159434
-0.0005445419352821708   6.958353287009832e-05   -0.0003563098281304702
-0.0005445419352821708   6.958353287009832e-05   -0.0003563098281304702
-0.0005445419352821708   6.958353287009832e-05   -0.0003563098281304702
-0.0005445419352821708   6.958353287009832e-05   -0.0003563098281304702