<?xml version="1.0"?> 
<VTKFile type="UnstructuredGrid"> 
   <UnstructuredGrid> 
      <Piece NumberOfPoints="6000"  NumberOfCells="1500">  
          <Points>  
             <DataArray type="Float64" NumberOfComponents="3" format="ascii">   
-500.0   0.0   0.0
-450.0   0.0   0.0
-500.0   30.0   0.0
-500.0   0.0   16.666666666666668
-450.0   0.0   0.0
-450.0   30.0   0.0
-500.0   30.0   0.0
-450.0   30.0   16.666666666666668
-500.0   0.0   16.666666666666668
-500.0   30.0   16.666666666666668
-450.0   30.0   16.666666666666668
-500.0   30.0   0.0
-500.0   0.0   16.666666666666668
-450.0   30.0   16.666666666666668
-450.0   0.0   16.666666666666668
-450.0   0.0   0.0
-500.0   0.0   16.666666666666668
-450.0   30.0   16.666666666666668
-450.0   0.0   0.0
-500.0   30.0   0.0
-500.0   0.0   16.666666666666668
-450.0   0.0   16.666666666666668
-500.0   30.0   16.666666666666668
-500.0   0.0   33.333333333333336
-450.0   0.0   16.666666666666668
-450.0   30.0   16.666666666666668
-500.0   30.0   16.666666666666668
-450.0   30.0   33.333333333333336
-500.0   0.0   33.333333333333336
-500.0   30.0   33.333333333333336
-450.0   30.0   33.333333333333336
-500.0   30.0   16.666666666666668
-500.0   0.0   33.333333333333336
-450.0   30.0   33.333333333333336
-450.0   0.0   33.333333333333336
-450.0   0.0   16.666666666666668
-500.0   0.0   33.333333333333336
-450.0   30.0   33.333333333333336
-450.0   0.0   16.666666666666668
-500.0   30.0   16.666666666666668
-500.0   0.0   33.333333333333336
-450.0   0.0   33.333333333333336
-500.0   30.0   33.333333333333336
-500.0   0.0   50.0
-450.0   0.0   33.333333333333336
-450.0   30.0   33.333333333333336
-500.0   30.0   33.333333333333336
-450.0   30.0   50.0
-500.0   0.0   50.0
-500.0   30.0   50.0
-450.0   30.0   50.0
-500.0   30.0   33.333333333333336
-500.0   0.0   50.0
-450.0   30.0   50.0
-450.0   0.0   50.0
-450.0   0.0   33.333333333333336
-500.0   0.0   50.0
-450.0   30.0   50.0
-450.0   0.0   33.333333333333336
-500.0   30.0   33.333333333333336
-500.0   30.0   0.0
-450.0   30.0   0.0
-500.0   60.0   0.0
-500.0   30.0   16.666666666666668
-450.0   30.0   0.0
-450.0   60.0   0.0
-500.0   60.0   0.0
-450.0   60.0   16.666666666666668
-500.0   30.0   16.666666666666668
-500.0   60.0   16.666666666666668
-450.0   60.0   16.666666666666668
-500.0   60.0   0.0
-500.0   30.0   16.666666666666668
-450.0   60.0   16.666666666666668
-450.0   30.0   16.666666666666668
-450.0   30.0   0.0
-500.0   30.0   16.666666666666668
-450.0   60.0   16.666666666666668
-450.0   30.0   0.0
-500.0   60.0   0.0
-500.0   30.0   16.666666666666668
-450.0   30.0   16.666666666666668
-500.0   60.0   16.666666666666668
-500.0   30.0   33.333333333333336
-450.0   30.0   16.666666666666668
-450.0   60.0   16.666666666666668
-500.0   60.0   16.666666666666668
-450.0   60.0   33.333333333333336
-500.0   30.0   33.333333333333336
-500.0   60.0   33.333333333333336
-450.0   60.0   33.333333333333336
-500.0   60.0   16.666666666666668
-500.0   30.0   33.333333333333336
-450.0   60.0   33.333333333333336
-450.0   30.0   33.333333333333336
-450.0   30.0   16.666666666666668
-500.0   30.0   33.333333333333336
-450.0   60.0   33.333333333333336
-450.0   30.0   16.666666666666668
-500.0   60.0   16.666666666666668
-500.0   30.0   33.333333333333336
-450.0   30.0   33.333333333333336
-500.0   60.0   33.333333333333336
-500.0   30.0   50.0
-450.0   30.0   33.333333333333336
-450.0   60.0   33.333333333333336
-500.0   60.0   33.333333333333336
-450.0   60.0   50.0
-500.0   30.0   50.0
-500.0   60.0   50.0
-450.0   60.0   50.0
-500.0   60.0   33.333333333333336
-500.0   30.0   50.0
-450.0   60.0   50.0
-450.0   30.0   50.0
-450.0   30.0   33.333333333333336
-500.0   30.0   50.0
-450.0   60.0   50.0
-450.0   30.0   33.333333333333336
-500.0   60.0   33.333333333333336
-500.0   60.0   0.0
-450.0   60.0   0.0
-500.0   90.0   0.0
-500.0   60.0   16.666666666666668
-450.0   60.0   0.0
-450.0   90.0   0.0
-500.0   90.0   0.0
-450.0   90.0   16.666666666666668
-500.0   60.0   16.666666666666668
-500.0   90.0   16.666666666666668
-450.0   90.0   16.666666666666668
-500.0   90.0   0.0
-500.0   60.0   16.666666666666668
-450.0   90.0   16.666666666666668
-450.0   60.0   16.666666666666668
-450.0   60.0   0.0
-500.0   60.0   16.666666666666668
-450.0   90.0   16.666666666666668
-450.0   60.0   0.0
-500.0   90.0   0.0
-500.0   60.0   16.666666666666668
-450.0   60.0   16.666666666666668
-500.0   90.0   16.666666666666668
-500.0   60.0   33.333333333333336
-450.0   60.0   16.666666666666668
-450.0   90.0   16.666666666666668
-500.0   90.0   16.666666666666668
-450.0   90.0   33.333333333333336
-500.0   60.0   33.333333333333336
-500.0   90.0   33.333333333333336
-450.0   90.0   33.333333333333336
-500.0   90.0   16.666666666666668
-500.0   60.0   33.333333333333336
-450.0   90.0   33.333333333333336
-450.0   60.0   33.333333333333336
-450.0   60.0   16.666666666666668
-500.0   60.0   33.333333333333336
-450.0   90.0   33.333333333333336
-450.0   60.0   16.666666666666668
-500.0   90.0   16.666666666666668
-500.0   60.0   33.333333333333336
-450.0   60.0   33.333333333333336
-500.0   90.0   33.333333333333336
-500.0   60.0   50.0
-450.0   60.0   33.333333333333336
-450.0   90.0   33.333333333333336
-500.0   90.0   33.333333333333336
-450.0   90.0   50.0
-500.0   60.0   50.0
-500.0   90.0   50.0
-450.0   90.0   50.0
-500.0   90.0   33.333333333333336
-500.0   60.0   50.0
-450.0   90.0   50.0
-450.0   60.0   50.0
-450.0   60.0   33.333333333333336
-500.0   60.0   50.0
-450.0   90.0   50.0
-450.0   60.0   33.333333333333336
-500.0   90.0   33.333333333333336
-500.0   90.0   0.0
-450.0   90.0   0.0
-500.0   120.0   0.0
-500.0   90.0   16.666666666666668
-450.0   90.0   0.0
-450.0   120.0   0.0
-500.0   120.0   0.0
-450.0   120.0   16.666666666666668
-500.0   90.0   16.666666666666668
-500.0   120.0   16.666666666666668
-450.0   120.0   16.666666666666668
-500.0   120.0   0.0
-500.0   90.0   16.666666666666668
-450.0   120.0   16.666666666666668
-450.0   90.0   16.666666666666668
-450.0   90.0   0.0
-500.0   90.0   16.666666666666668
-450.0   120.0   16.666666666666668
-450.0   90.0   0.0
-500.0   120.0   0.0
-500.0   90.0   16.666666666666668
-450.0   90.0   16.666666666666668
-500.0   120.0   16.666666666666668
-500.0   90.0   33.333333333333336
-450.0   90.0   16.666666666666668
-450.0   120.0   16.666666666666668
-500.0   120.0   16.666666666666668
-450.0   120.0   33.333333333333336
-500.0   90.0   33.333333333333336
-500.0   120.0   33.333333333333336
-450.0   120.0   33.333333333333336
-500.0   120.0   16.666666666666668
-500.0   90.0   33.333333333333336
-450.0   120.0   33.333333333333336
-450.0   90.0   33.333333333333336
-450.0   90.0   16.666666666666668
-500.0   90.0   33.333333333333336
-450.0   120.0   33.333333333333336
-450.0   90.0   16.666666666666668
-500.0   120.0   16.666666666666668
-500.0   90.0   33.333333333333336
-450.0   90.0   33.333333333333336
-500.0   120.0   33.333333333333336
-500.0   90.0   50.0
-450.0   90.0   33.333333333333336
-450.0   120.0   33.333333333333336
-500.0   120.0   33.333333333333336
-450.0   120.0   50.0
-500.0   90.0   50.0
-500.0   120.0   50.0
-450.0   120.0   50.0
-500.0   120.0   33.333333333333336
-500.0   90.0   50.0
-450.0   120.0   50.0
-450.0   90.0   50.0
-450.0   90.0   33.333333333333336
-500.0   90.0   50.0
-450.0   120.0   50.0
-450.0   90.0   33.333333333333336
-500.0   120.0   33.333333333333336
-500.0   120.0   0.0
-450.0   120.0   0.0
-500.0   150.0   0.0
-500.0   120.0   16.666666666666668
-450.0   120.0   0.0
-450.0   150.0   0.0
-500.0   150.0   0.0
-450.0   150.0   16.666666666666668
-500.0   120.0   16.666666666666668
-500.0   150.0   16.666666666666668
-450.0   150.0   16.666666666666668
-500.0   150.0   0.0
-500.0   120.0   16.666666666666668
-450.0   150.0   16.666666666666668
-450.0   120.0   16.666666666666668
-450.0   120.0   0.0
-500.0   120.0   16.666666666666668
-450.0   150.0   16.666666666666668
-450.0   120.0   0.0
-500.0   150.0   0.0
-500.0   120.0   16.666666666666668
-450.0   120.0   16.666666666666668
-500.0   150.0   16.666666666666668
-500.0   120.0   33.333333333333336
-450.0   120.0   16.666666666666668
-450.0   150.0   16.666666666666668
-500.0   150.0   16.666666666666668
-450.0   150.0   33.333333333333336
-500.0   120.0   33.333333333333336
-500.0   150.0   33.333333333333336
-450.0   150.0   33.333333333333336
-500.0   150.0   16.666666666666668
-500.0   120.0   33.333333333333336
-450.0   150.0   33.333333333333336
-450.0   120.0   33.333333333333336
-450.0   120.0   16.666666666666668
-500.0   120.0   33.333333333333336
-450.0   150.0   33.333333333333336
-450.0   120.0   16.666666666666668
-500.0   150.0   16.666666666666668
-500.0   120.0   33.333333333333336
-450.0   120.0   33.333333333333336
-500.0   150.0   33.333333333333336
-500.0   120.0   50.0
-450.0   120.0   33.333333333333336
-450.0   150.0   33.333333333333336
-500.0   150.0   33.333333333333336
-450.0   150.0   50.0
-500.0   120.0   50.0
-500.0   150.0   50.0
-450.0   150.0   50.0
-500.0   150.0   33.333333333333336
-500.0   120.0   50.0
-450.0   150.0   50.0
-450.0   120.0   50.0
-450.0   120.0   33.333333333333336
-500.0   120.0   50.0
-450.0   150.0   50.0
-450.0   120.0   33.333333333333336
-500.0   150.0   33.333333333333336
-450.0   0.0   0.0
-400.0   0.0   0.0
-450.0   30.0   0.0
-450.0   0.0   16.666666666666668
-400.0   0.0   0.0
-400.0   30.0   0.0
-450.0   30.0   0.0
-400.0   30.0   16.666666666666668
-450.0   0.0   16.666666666666668
-450.0   30.0   16.666666666666668
-400.0   30.0   16.666666666666668
-450.0   30.0   0.0
-450.0   0.0   16.666666666666668
-400.0   30.0   16.666666666666668
-400.0   0.0   16.666666666666668
-400.0   0.0   0.0
-450.0   0.0   16.666666666666668
-400.0   30.0   16.666666666666668
-400.0   0.0   0.0
-450.0   30.0   0.0
-450.0   0.0   16.666666666666668
-400.0   0.0   16.666666666666668
-450.0   30.0   16.666666666666668
[...]
          <PointData>  
             <DataArray type="Float64" NumberOfComponents="3" Name="Strains" format="ascii">   
-0.0004385960229246524   0.0   -0.0002868979776887078
-0.0004385960229246524   0.0   -0.0002868979776887078
-0.0004385960229246524   0.0   -0.0002868979776887078
-0.0004385960229246524   0.0   -0.0002868979776887078
-0.0002791814537764434   4.871453087866763e-05   8.021689418840521e-06
-0.0002791814537764434   4.871453087866763e-05   8.021689418840521e-06
-0.0002791814537764434   4.871453087866763e-05   8.021689418840521e-06
-0.0002791814537764434   4.871453087866763e-05   8.021689418840521e-06
-0.00027372619278369175   0.0   -0.0002706495298864381
-0.00027372619278369175   0.0   -0.0002706495298864381
-0.00027372619278369175   0.0   -0.0002706495298864381
-0.00027372619278369175   0.0   -0.0002706495298864381
-0.0004590931663213185   5.83995619954834e-05   3.255688812317699e-06
-0.0004590931663213185   5.83995619954834e-05   3.255688812317699e-06
-0.0004590931663213185   5.83995619954834e-05   3.255688812317699e-06
-0.0004590931663213185   5.83995619954834e-05   3.255688812317699e-06
-0.00035616110785417147   1.3540373168558075e-05   -0.00014138222867010546
-0.00035616110785417147   1.3540373168558075e-05   -0.00014138222867010546
-0.00035616110785417147   1.3540373168558075e-05   -0.00014138222867010546
-0.00035616110785417147   1.3540373168558075e-05   -0.00014138222867010546
-0.0004590931663213193   0.0   -0.0003056892670837282
-0.0004590931663213193   0.0   -0.0003056892670837282
-0.0004590931663213193   0.0   -0.0003056892670837282
-0.0004590931663213193   0.0   -0.0003056892670837282
-0.00027372619278369175   5.839956199548351e-05   3.829542600960778e-05
-0.00027372619278369175   5.839956199548351e-05   3.829542600960778e-05
-0.00027372619278369175   5.839956199548351e-05   3.829542600960778e-05
-0.00027372619278369175   5.839956199548351e-05   3.829542600960778e-05
-0.000274569565067729   0.0   -0.0002772933018463183
-0.000274569565067729   0.0   -0.0002772933018463183
-0.000274569565067729   0.0   -0.0002772933018463183
-0.000274569565067729   0.0   -0.0002772933018463183
-0.0004735208949509906   6.254988651664656e-05   1.6762316049131012e-05
-0.0004735208949509906   6.254988651664656e-05   1.6762316049131012e-05
-0.0004735208949509906   6.254988651664656e-05   1.6762316049131012e-05
-0.0004735208949509906   6.254988651664656e-05   1.6762316049131012e-05
-0.0003668313656945235   2.3663304364508254e-05   -0.00013772161675369767
-0.0003668313656945235   2.3663304364508254e-05   -0.00013772161675369767
-0.0003668313656945235   2.3663304364508254e-05   -0.00013772161675369767
-0.0003668313656945235   2.3663304364508254e-05   -0.00013772161675369767
-0.0004735208949509914   0.0   -0.00031482323375630624
-0.0004735208949509914   0.0   -0.00031482323375630624
-0.0004735208949509914   0.0   -0.00031482323375630624
-0.0004735208949509914   0.0   -0.00031482323375630624
-0.000274569565067729   6.254988651664667e-05   5.429224795911895e-05
-0.000274569565067729   6.254988651664667e-05   5.429224795911895e-05
-0.000274569565067729   6.254988651664667e-05   5.429224795911895e-05
-0.000274569565067729   6.254988651664667e-05   5.429224795911895e-05
-0.00027450575099927446   0.0   -0.0002789892247168278
-0.00027450575099927446   0.0   -0.0002789892247168278
-0.00027450575099927446   0.0   -0.0002789892247168278
-0.00027450575099927446   0.0   -0.0002789892247168278
-0.0005045313245919297   7.120579607659312e-05   6.166325362497627e-05
-0.0005045313245919297   7.120579607659312e-05   6.166325362497627e-05
-0.0005045313245919297   7.120579607659312e-05   6.166325362497627e-05
-0.0005045313245919297   7.120579607659312e-05   6.166325362497627e-05
-0.0003740133229751323   2.9861674199565375e-05   -0.00013106027594346926
-0.0003740133229751323   2.9861674199565375e-05   -0.00013106027594346926
-0.0003740133229751323   2.9861674199565375e-05   -0.00013106027594346926
-0.0003740133229751323   2.9861674199565375e-05   -0.00013106027594346926
-0.00027918145377644387   0.0   -0.00025766925916150717
-0.00027918145377644387   0.0   -0.00025766925916150717
-0.00027918145377644387   0.0   -0.00025766925916150717
-0.00027918145377644387   0.0   -0.00025766925916150717
-0.00012705815636901663   1.78909821433893e-05   6.604159136904886e-06
-0.00012705815636901663   1.78909821433893e-05   6.604159136904886e-06
-0.00012705815636901663   1.78909821433893e-05   6.604159136904886e-06
-0.00012705815636901663   1.78909821433893e-05   6.604159136904886e-06
-0.0001222723420276726   0.0   -0.0002553918038679764
-0.0001222723420276726   0.0   -0.0002553918038679764
-0.0001222723420276726   0.0   -0.0002553918038679764
-0.0001222723420276726   0.0   -0.0002553918038679764
-0.00027372619278369175   2.5429543364102888e-05   -1.8226445293072853e-05
-0.00027372619278369175   2.5429543364102888e-05   -1.8226445293072853e-05
-0.00027372619278369175   2.5429543364102888e-05   -1.8226445293072853e-05
-0.00027372619278369175   2.5429543364102888e-05   -1.8226445293072853e-05
-0.00020072689790205788   1.8978794112756788e-06   -0.00012577293839076542
-0.00020072689790205788   1.8978794112756788e-06   -0.00012577293839076542
-0.00020072689790205788   1.8978794112756788e-06   -0.00012577293839076542
-0.00020072689790205788   1.8978794112756788e-06   -0.00012577293839076542
-0.0002737261927836915   0.0   -0.00027064952988643787
-0.0002737261927836915   0.0   -0.00027064952988643787
-0.0002737261927836915   0.0   -0.00027064952988643787
-0.0002737261927836915   0.0   -0.00027064952988643787
-0.0001222723420276726   2.5429543364102888e-05   -2.9687192746112015e-06
-0.0001222723420276726   2.5429543364102888e-05   -2.9687192746112015e-06
-0.0001222723420276726   2.5429543364102888e-05   -2.9687192746112015e-06
-0.0001222723420276726   2.5429543364102888e-05   -2.9687192746112015e-06
-0.00011961367439783283   0.0   -0.00025861242895248066
-0.00011961367439783283   0.0   -0.00025861242895248066
-0.00011961367439783283   0.0   -0.00025861242895248066
-0.00011961367439783283   0.0   -0.00025861242895248066
-0.000274569565067729   3.1134788156395986e-05   -1.9033484063158052e-05
-0.000274569565067729   3.1134788156395986e-05   -1.9033484063158052e-05
-0.000274569565067729   3.1134788156395986e-05   -1.9033484063158052e-05
-0.000274569565067729   3.1134788156395986e-05   -1.9033484063158052e-05
-0.0001966699335907619   1.0030917444964519e-05   -0.0001362038807645765
-0.0001966699335907619   1.0030917444964519e-05   -0.0001362038807645765
-0.0001966699335907619   1.0030917444964519e-05   -0.0001362038807645765
-0.0001966699335907619   1.0030917444964519e-05   -0.0001362038807645765
-0.000274569565067729   0.0   -0.0002772933018463183
-0.000274569565067729   0.0   -0.0002772933018463183
-0.000274569565067729   0.0   -0.0002772933018463183
-0.000274569565067729   0.0   -0.0002772933018463183
-0.00011961367439783283   3.1134788156395986e-05   -3.526111693204063e-07
-0.00011961367439783283   3.1134788156395986e-05   -3.526111693204063e-07
-0.00011961367439783283   3.1134788156395986e-05   -3.526111693204063e-07
-0.00011961367439783283   3.1134788156395986e-05   -3.526111693204063e-07
-0.00011720454679101692   0.0   -0.000257262012722995
-0.00011720454679101692   0.0   -0.000257262012722995
-0.00011720454679101692   0.0   -0.000257262012722995
-0.00011720454679101692   0.0   -0.000257262012722995
-0.00027450575099927376   3.621201998972091e-05   -1.6820551036398495e-05
-0.00027450575099927376   3.621201998972091e-05   -1.6820551036398495e-05
-0.00027450575099927376   3.621201998972091e-05   -1.6820551036398495e-05
-0.00027450575099927376   3.621201998972091e-05   -1.6820551036398495e-05
-0.0001958870559293729   1.6692740936102547e-05   -0.00013614014205406324
-0.0001958870559293729   1.6692740936102547e-05   -0.00013614014205406324
-0.0001958870559293729   1.6692740936102547e-05   -0.00013614014205406324
-0.0001958870559293729   1.6692740936102547e-05   -0.00013614014205406324
-0.00012705815636901684   0.0   -0.0002469346698754736
-0.00012705815636901684   0.0   -0.0002469346698754736
-0.00012705815636901684   0.0   -0.0002469346698754736
-0.00012705815636901684   0.0   -0.0002469346698754736
1.6730816929058198e-05   -2.273727206248354e-06   -8.650617369097312e-06
1.6730816929058198e-05   -2.273727206248354e-06   -8.650617369097312e-06
1.6730816929058198e-05   -2.273727206248354e-06   -8.650617369097312e-06
1.6730816929058198e-05   -2.273727206248354e-06   -8.650617369097312e-06
1.975248902870528e-05   0.0   -0.00025269166478331844
1.975248902870528e-05   0.0   -0.00025269166478331844
1.975248902870528e-05   0.0   -0.00025269166478331844
1.975248902870528e-05   0.0   -0.00025269166478331844
-0.0001222723420276726   4.500231807761789e-06   -1.868375210734656e-05
-0.0001222723420276726   4.500231807761789e-06   -1.868375210734656e-05
-0.0001222723420276726   4.500231807761789e-06   -1.868375210734656e-05
-0.0001222723420276726   4.500231807761789e-06   -1.868375210734656e-05
-5.3652833670155655e-05   -4.797495756538077e-06   -0.00012747096283129432
-5.3652833670155655e-05   -4.797495756538077e-06   -0.00012747096283129432
-5.3652833670155655e-05   -4.797495756538077e-06   -0.00012747096283129432
-5.3652833670155655e-05   -4.797495756538077e-06   -0.00012747096283129432
-0.0001222723420276726   0.0   -0.0002553918038679764
-0.0001222723420276726   0.0   -0.0002553918038679764
-0.0001222723420276726   0.0   -0.0002553918038679764
-0.0001222723420276726   0.0   -0.0002553918038679764
1.9752489028705314e-05   4.500231807761789e-06   -1.5983613022689393e-05
1.9752489028705314e-05   4.500231807761789e-06   -1.5983613022689393e-05
1.9752489028705314e-05   4.500231807761789e-06   -1.5983613022689393e-05
1.9752489028705314e-05   4.500231807761789e-06   -1.5983613022689393e-05
2.2127944825805735e-05   0.0   -0.0002523356355128725
2.2127944825805735e-05   0.0   -0.0002523356355128725
2.2127944825805735e-05   0.0   -0.0002523356355128725
2.2127944825805735e-05   0.0   -0.0002523356355128725
-0.00011961367439783262   1.0461322399346227e-05   -2.237639691308297e-05
-0.00011961367439783262   1.0461322399346227e-05   -2.237639691308297e-05
-0.00011961367439783262   1.0461322399346227e-05   -2.237639691308297e-05
-0.00011961367439783262   1.0461322399346227e-05   -2.237639691308297e-05
-5.007219860093342e-05   2.5468069625861887e-06   -0.00013353014731252598
-5.007219860093342e-05   2.5468069625861887e-06   -0.00013353014731252598
-5.007219860093342e-05   2.5468069625861887e-06   -0.00013353014731252598
-5.007219860093342e-05   2.5468069625861887e-06   -0.00013353014731252598
-0.00011961367439783283   0.0   -0.00025861242895248066
-0.00011961367439783283   0.0   -0.00025861242895248066
-0.00011961367439783283   0.0   -0.00025861242895248066
-0.00011961367439783283   0.0   -0.00025861242895248066
2.2127944825805772e-05   1.0461322399346227e-05   -1.609960347347535e-05
2.2127944825805772e-05   1.0461322399346227e-05   -1.609960347347535e-05
2.2127944825805772e-05   1.0461322399346227e-05   -1.609960347347535e-05
2.2127944825805772e-05   1.0461322399346227e-05   -1.609960347347535e-05
2.5347838921779802e-05   0.0   -0.00024683999430791866
2.5347838921779802e-05   0.0   -0.00024683999430791866
2.5347838921779802e-05   0.0   -0.00024683999430791866
2.5347838921779802e-05   0.0   -0.00024683999430791866
-0.00011720454679101683   1.7370030691793513e-05   -1.9674703201667077e-05
-0.00011720454679101683   1.7370030691793513e-05   -1.9674703201667077e-05
-0.00011720454679101683   1.7370030691793513e-05   -1.9674703201667077e-05
-0.00011720454679101683   1.7370030691793513e-05   -1.9674703201667077e-05
-4.713291773802641e-05   9.810362203801283e-06   -0.00013192495053052235
-4.713291773802641e-05   9.810362203801283e-06   -0.00013192495053052235
-4.713291773802641e-05   9.810362203801283e-06   -0.00013192495053052235
-4.713291773802641e-05   9.810362203801283e-06   -0.00013192495053052235
1.6730816929058225e-05   0.0   -0.00024829890619922264
1.6730816929058225e-05   0.0   -0.00024829890619922264
1.6730816929058225e-05   0.0   -0.00024829890619922264
1.6730816929058225e-05   0.0   -0.00024829890619922264
0.00017275081285493532   -2.0261529566612826e-05   -4.22497396061598e-07
0.00017275081285493532   -2.0261529566612826e-05   -4.22497396061598e-07
0.00017275081285493532   -2.0261529566612826e-05   -4.22497396061598e-07
0.00017275081285493532   -2.0261529566612826e-05   -4.22497396061598e-07
0.00017296564070102557   0.0   -0.0002618684500631916
0.00017296564070102557   0.0   -0.0002618684500631916
0.00017296564070102557   0.0   -0.0002618684500631916
0.00017296564070102557   0.0   -0.0002618684500631916
1.9752489028705348e-05   -1.52946421331205e-05   2.66358800388101e-06
1.9752489028705348e-05   -1.52946421331205e-05   2.66358800388101e-06
1.9752489028705348e-05   -1.52946421331205e-05   2.66358800388101e-06
1.9752489028705348e-05   -1.52946421331205e-05   2.66358800388101e-06
9.484822881504189e-05   -1.130795321997415e-05   -0.00012488799165456758
9.484822881504189e-05   -1.130795321997415e-05   -0.00012488799165456758
9.484822881504189e-05   -1.130795321997415e-05   -0.00012488799165456758
9.484822881504189e-05   -1.130795321997415e-05   -0.00012488799165456758
1.9752489028705348e-05   0.0   -0.0002526916647833193
1.9752489028705348e-05   0.0   -0.0002526916647833193
1.9752489028705348e-05   0.0   -0.0002526916647833193
1.9752489028705348e-05   0.0   -0.0002526916647833193
0.00017296564070102557   -1.52946421331205e-05   -6.513197275991262e-06
0.00017296564070102557   -1.52946421331205e-05   -6.513197275991262e-06
0.00017296564070102557   -1.52946421331205e-05   -6.513197275991262e-06
0.00017296564070102557   -1.52946421331205e-05   -6.513197275991262e-06
0.00017214526660671006   0.0   -0.0002581284058454716
0.00017214526660671006   0.0   -0.0002581284058454716
0.00017214526660671006   0.0   -0.0002581284058454716
0.00017214526660671006   0.0   -0.0002581284058454716
2.2127944825805772e-05   -9.654617220997727e-06   -2.3067658780325783e-06
2.2127944825805772e-05   -9.654617220997727e-06   -2.3067658780325783e-06
2.2127944825805772e-05   -9.654617220997727e-06   -2.3067658780325783e-06
2.2127944825805772e-05   -9.654617220997727e-06   -2.3067658780325783e-06
9.594887781770771e-05   -4.530617551793569e-06   -0.00012841605399939145
9.594887781770771e-05   -4.530617551793569e-06   -0.00012841605399939145
9.594887781770771e-05   -4.530617551793569e-06   -0.00012841605399939145
9.594887781770771e-05   -4.530617551793569e-06   -0.00012841605399939145
2.2127944825805755e-05   0.0   -0.00025233563551287276
2.2127944825805755e-05   0.0   -0.00025233563551287276
2.2127944825805755e-05   0.0   -0.00025233563551287276
2.2127944825805755e-05   0.0   -0.00025233563551287276
0.00017214526660671006   -9.654617220997727e-06   -8.0995362106312e-06
0.00017214526660671006   -9.654617220997727e-06   -8.0995362106312e-06
0.00017214526660671006   -9.654617220997727e-06   -8.0995362106312e-06
0.00017214526660671006   -9.654617220997727e-06   -8.0995362106312e-06
0.00017540272956333733   0.0   -0.000248082494182421
0.00017540272956333733   0.0   -0.000248082494182421
0.00017540272956333733   0.0   -0.000248082494182421
0.00017540272956333733   0.0   -0.000248082494182421
2.5347838921779846e-05   -2.0708331241698166e-06   3.2514900946767014e-06
2.5347838921779846e-05   -2.0708331241698166e-06   3.2514900946767014e-06
2.5347838921779846e-05   -2.0708331241698166e-06   3.2514900946767014e-06
2.5347838921779846e-05   -2.0708331241698166e-06   3.2514900946767014e-06
9.876533719457148e-05   3.5442844420433158e-06   -0.0001224800775663705
9.876533719457148e-05   3.5442844420433158e-06   -0.0001224800775663705
9.876533719457148e-05   3.5442844420433158e-06   -0.0001224800775663705
9.876533719457148e-05   3.5442844420433158e-06   -0.0001224800775663705
0.00017275081285493532   0.0   -0.0002604558239391903
0.00017275081285493532   0.0   -0.0002604558239391903
0.00017275081285493532   0.0   -0.0002604558239391903
0.00017275081285493532   0.0   -0.0002604558239391903
0.00038952132668427657   -5.130075508224174e-05   7.00479127270355e-05
0.00038952132668427657   -5.130075508224174e-05   7.00479127270355e-05
0.00038952132668427657   -5.130075508224174e-05   7.00479127270355e-05
0.00038952132668427657   -5.130075508224174e-05   7.00479127270355e-05
0.00036570342739318615   0.0   -0.0002880869844153876
0.00036570342739318615   0.0   -0.0002880869844153876
0.00036570342739318615   0.0   -0.0002880869844153876
0.00036570342739318615   0.0   -0.0002880869844153876
0.00017296564070102557   -4.3697557253659976e-05   5.936119442374264e-05
0.00017296564070102557   -4.3697557253659976e-05   5.936119442374264e-05
0.00017296564070102557   -4.3697557253659976e-05   5.936119442374264e-05
0.00017296564070102557   -4.3697557253659976e-05   5.936119442374264e-05
0.00026922712012406074   -2.3025967063497753e-05   -0.00011347755872874647
0.00026922712012406074   -2.3025967063497753e-05   -0.00011347755872874647
0.00026922712012406074   -2.3025967063497753e-05   -0.00011347755872874647
0.00026922712012406074   -2.3025967063497753e-05   -0.00011347755872874647
0.0001729656407010254   0.0   -0.00026186845006319137
0.0001729656407010254   0.0   -0.00026186845006319137
0.0001729656407010254   0.0   -0.00026186845006319137
0.0001729656407010254   0.0   -0.00026186845006319137
0.00036570342739318485   -4.369755725365987e-05   3.314266007154647e-05
0.00036570342739318485   -4.369755725365987e-05   3.314266007154647e-05
0.00036570342739318485   -4.369755725365987e-05   3.314266007154647e-05
0.00036570342739318485   -4.369755725365987e-05   3.314266007154647e-05
0.0003546840928854151   0.0   -0.00028209662591404907
0.0003546840928854151   0.0   -0.00028209662591404907
0.0003546840928854151   0.0   -0.00028209662591404907
0.0003546840928854151   0.0   -0.00028209662591404907
0.00017214526660671006   -3.9947033447629136e-05   4.6102971285703464e-05
0.00017214526660671006   -3.9947033447629136e-05   4.6102971285703464e-05
0.00017214526660671006   -3.9947033447629136e-05   4.6102971285703464e-05
0.00017214526660671006   -3.9947033447629136e-05   4.6102971285703464e-05
0.00026382486679322017   -1.6856813209047887e-05   -0.00012055049450162878
0.00026382486679322017   -1.6856813209047887e-05   -0.00012055049450162878
0.00026382486679322017   -1.6856813209047887e-05   -0.00012055049450162878
0.00026382486679322017   -1.6856813209047887e-05   -0.00012055049450162878
0.00017214526660671006   0.0   -0.0002581284058454716
0.00017214526660671006   0.0   -0.0002581284058454716
0.00017214526660671006   0.0   -0.0002581284058454716
0.00017214526660671006   0.0   -0.0002581284058454716
0.0003546840928854139   -3.994703344762897e-05   2.2134751217125874e-05
0.0003546840928854139   -3.994703344762897e-05   2.2134751217125874e-05
0.0003546840928854139   -3.994703344762897e-05   2.2134751217125874e-05
0.0003546840928854139   -3.994703344762897e-05   2.2134751217125874e-05
0.000338335030381319   0.0   -0.0002667455726161617
0.000338335030381319   0.0   -0.0002667455726161617
0.000338335030381319   0.0   -0.0002667455726161617
0.000338335030381319   0.0   -0.0002667455726161617
0.00017540272956333733   -3.1105130722901926e-05   2.347134051421595e-05
0.00017540272956333733   -3.1105130722901926e-05   2.347134051421595e-05
0.00017540272956333733   -3.1105130722901926e-05   2.347134051421595e-05
0.00017540272956333733   -3.1105130722901926e-05   2.347134051421595e-05
0.00025524014849401483   -7.180972308908811e-06   -0.00012394551941864222
0.00025524014849401483   -7.180972308908811e-06   -0.00012394551941864222
0.00025524014849401483   -7.180972308908811e-06   -0.00012394551941864222
0.00025524014849401483   -7.180972308908811e-06   -0.00012394551941864222
-0.0003812501677203367   4.871453087866757e-05   -0.00024951532906747505
-0.0003812501677203367   4.871453087866757e-05   -0.00024951532906747505
-0.0003812501677203367   4.871453087866757e-05   -0.00024951532906747505