<?xml version="1.0"?> 
<VTKFile type="UnstructuredGrid"> 
   <UnstructuredGrid> 
      <Piece NumberOfPoints="6000"  NumberOfCells="1500">  
          <Points>  
             <DataArray type="Float64" NumberOfComponents="3" format="ascii">   
-500.0   0.0   0.0
-450.0   0.0   0.0
-500.0   30.0   0.0
-500.0   0.0   16.666666666666668
-450.0   0.0   0.0
-450.0   30.0   0.0
-500.0   30.0   0.0
-450.0   30.0   16.666666666666668
-500.0   0.0   16.666666666666668
-500.0   30.0   16.666666666666668
-450.0   30.0   16.666666666666668
-500.0   30.0   0.0
-500.0   0.0   16.666666666666668
-450.0   30.0   16.666666666666668
-450.0   0.0   16.666666666666668
-450.0   0.0   0.0
-500.0   0.0   16.666666666666668
-450.0   30.0   16.666666666666668
-450.0   0.0   0.0
-500.0   30.0   0.0
-500.0   0.0   16.666666666666668
-450.0   0.0   16.666666666666668
-500.0   30.0   16.666666666666668
-500.0   0.0   33.333333333333336
-450.0   0.0   16.666666666666668
-450.0   30.0   16.666666666666668
-500.0   30.0   16.666666666666668
-450.0   30.0   33.333333333333336
-500.0   0.0   33.333333333333336
-500.0   30.0   33.333333333333336
-450.0   30.0   33.333333333333336
-500.0   30.0   16.666666666666668
-500.0   0.0   33.333333333333336
-450.0   30.0   33.333333333333336
-450.0   0.0   33.333333333333336
-450.0   0.0   16.666666666666668
-500.0   0.0   33.333333333333336
-450.0   30.0   33.333333333333336
-450.0   0.0   16.666666666666668
-500.0   30.0   16.666666666666668
-500.0   0.0   33.333333333333336
-450.0   0.0   33.333333333333336
-500.0   30.0   33.333333333333336
-500.0   0.0   50.0
-450.0   0.0   33.333333333333336
-450.0   30.0   33.333333333333336
-500.0   30.0   33.333333333333336
-450.0   30.0   50.0
-500.0   0.0   50.0
-500.0   30.0   50.0
-450.0   30.0   50.0
-500.0   30.0   33.333333333333336
-500.0   0.0   50.0
-450.0   30.0   50.0
-450.0   0.0   50.0
-450.0   0.0   33.333333333333336
-500.0   0.0   50.0
-450.0   30.0   50.0
-450.0   0.0   33.333333333333336
-500.0   30.0   33.333333333333336
-500.0   30.0   0.0
-450.0   30.0   0.0
-500.0   60.0   0.0
-500.0   30.0   16.666666666666668
-450.0   30.0   0.0
-450.0   60.0   0.0
-500.0   60.0   0.0
-450.0   60.0   16.666666666666668
-500.0   30.0   16.666666666666668
-500.0   60.0   16.666666666666668
-450.0   60.0   16.666666666666668
-500.0   60.0   0.0
-500.0   30.0   16.666666666666668
-450.0   60.0   16.666666666666668
-450.0   30.0   16.666666666666668
-450.0   30.0   0.0
-500.0   30.0   16.666666666666668
-450.0   60.0   16.666666666666668
-450.0   30.0   0.0
-500.0   60.0   0.0
-500.0   30.0   16.666666666666668
-450.0   30.0   16.666666666666668
-500.0   60.0   16.666666666666668
-500.0   30.0   33.333333333333336
-450.0   30.0   16.666666666666668
-450.0   60.0   16.666666666666668
-500.0   60.0   16.666666666666668
-450.0   60.0   33.333333333333336
-500.0   30.0   33.333333333333336
-500.0   60.0   33.333333333333336
-450.0   60.0   33.333333333333336
-500.0   60.0   16.666666666666668
-500.0   30.0   33.333333333333336
-450.0   60.0   33.333333333333336
-450.0   30.0   33.333333333333336
-450.0   30.0   16.666666666666668
-500.0   30.0   33.333333333333336
-450.0   60.0   33.333333333333336
-450.0   30.0   16.666666666666668
-500.0   60.0   16.666666666666668
-500.0   30.0   33.333333333333336
-450.0   30.0   33.333333333333336
-500.0   60.0   33.333333333333336
-500.0   30.0   50.0
-450.0   30.0   33.333333333333336
-450.0   60.0   33.333333333333336
-500.0   60.0   33.333333333333336
-450.0   60.0   50.0
-500.0   30.0   50.0
-500.0   60.0   50.0
-450.0   60.0   50.0
-500.0   60.0   33.333333333333336
-500.0   30.0   50.0
-450.0   60.0   50.0
-450.0   30.0   50.0
-450.0   30.0   33.333333333333336
-500.0   30.0   50.0
-450.0   60.0   50.0
-450.0   30.0   33.333333333333336
-500.0   60.0   33.333333333333336
-500.0   60.0   0.0
-450.0   60.0   0.0
-500.0   90.0   0.0
-500.0   60.0   16.666666666666668
-450.0   60.0   0.0
-450.0   90.0   0.0
-500.0   90.0   0.0
-450.0   90.0   16.666666666666668
-500.0   60.0   16.666666666666668
-500.0   90.0   16.666666666666668
-450.0   90.0   16.666666666666668
-500.0   90.0   0.0
-500.0   60.0   16.666666666666668
-450.0   90.0   16.666666666666668
-450.0   60.0   16.666666666666668
-450.0   60.0   0.0
-500.0   60.0   16.666666666666668
-450.0   90.0   16.666666666666668
-450.0   60.0   0.0
-500.0   90.0   0.0
-500.0   60.0   16.666666666666668
-450.0   60.0   16.666666666666668
-500.0   90.0   16.666666666666668
-500.0   60.0   33.333333333333336
-450.0   60.0   16.666666666666668
-450.0   90.0   16.666666666666668
-500.0   90.0   16.666666666666668
-450.0   90.0   33.333333333333336
-500.0   60.0   33.333333333333336
-500.0   90.0   33.333333333333336
-450.0   90.0   33.333333333333336
-500.0   90.0   16.666666666666668
-500.0   60.0   33.333333333333336
-450.0   90.0   33.333333333333336
-450.0   60.0   33.333333333333336
-450.0   60.0   16.666666666666668
-500.0   60.0   33.333333333333336
-450.0   90.0   33.333333333333336
-450.0   60.0   16.666666666666668
-500.0   90.0   16.666666666666668
-500.0   60.0   33.333333333333336
-450.0   60.0   33.333333333333336
-500.0   90.0   33.333333333333336
-500.0   60.0   50.0
-450.0   60.0   33.333333333333336
-450.0   90.0   33.333333333333336
-500.0   90.0   33.333333333333336
-450.0   90.0   50.0
-500.0   60.0   50.0
-500.0   90.0   50.0
-450.0   90.0   50.0
-500.0   90.0   33.333333333333336
-500.0   60.0   50.0
-450.0   90.0   50.0
-450.0   60.0   50.0
-450.0   60.0   33.333333333333336
-500.0   60.0   50.0
-450.0   90.0   50.0
-450.0   60.0   33.333333333333336
-500.0   90.0   33.333333333333336
-500.0   90.0   0.0
-450.0   90.0   0.0
-500.0   120.0   0.0
-500.0   90.0   16.666666666666668
-450.0   90.0   0.0
-450.0   120.0   0.0
-500.0   120.0   0.0
-450.0   120.0   16.666666666666668
-500.0   90.0   16.666666666666668
-500.0   120.0   16.666666666666668
-450.0   120.0   16.666666666666668
-500.0   120.0   0.0
-500.0   90.0   16.666666666666668
-450.0   120.0   16.666666666666668
-450.0   90.0   16.666666666666668
-450.0   90.0   0.0
-500.0   90.0   16.666666666666668
-450.0   120.0   16.666666666666668
-450.0   90.0   0.0
-500.0   120.0   0.0
-500.0   90.0   16.666666666666668
-450.0   90.0   16.666666666666668
-500.0   120.0   16.666666666666668
-500.0   90.0   33.333333333333336
-450.0   90.0   16.666666666666668
-450.0   120.0   16.666666666666668
-500.0   120.0   16.666666666666668
-450.0   120.0   33.333333333333336
-500.0   90.0   33.333333333333336
-500.0   120.0   33.333333333333336
-450.0   120.0   33.333333333333336
-500.0   120.0   16.666666666666668
-500.0   90.0   33.333333333333336
-450.0   120.0   33.333333333333336
-450.0   90.0   33.333333333333336
-450.0   90.0   16.666666666666668
-500.0   90.0   33.333333333333336
-450.0   120.0   33.333333333333336
-450.0   90.0   16.666666666666668
-500.0   120.0   16.666666666666668
-500.0   90.0   33.333333333333336
-450.0   90.0   33.333333333333336
-500.0   120.0   33.333333333333336
-500.0   90.0   50.0
-450.0   90.0   33.333333333333336
-450.0   120.0   33.333333333333336
-500.0   120.0   33.333333333333336
-450.0   120.0   50.0
-500.0   90.0   50.0
-500.0   120.0   50.0
-450.0   120.0   50.0
-500.0   120.0   33.333333333333336
-500.0   90.0   50.0
-450.0   120.0   50.0
-450.0   90.0   50.0
-450.0   90.0   33.333333333333336
-500.0   90.0   50.0
-450.0   120.0   50.0
-450.0   90.0   33.333333333333336
-500.0   120.0   33.333333333333336
-500.0   120.0   0.0
-450.0   120.0   0.0
-500.0   150.0   0.0
-500.0   120.0   16.666666666666668
-450.0   120.0   0.0
-450.0   150.0   0.0
-500.0   150.0   0.0
-450.0   150.0   16.666666666666668
-500.0   120.0   16.666666666666668
-500.0   150.0   16.666666666666668
-450.0   150.0   16.666666666666668
-500.0   150.0   0.0
-500.0   120.0   16.666666666666668
-450.0   150.0   16.666666666666668
-450.0   120.0   16.666666666666668
-450.0   120.0   0.0
-500.0   120.0   16.666666666666668
-450.0   150.0   16.666666666666668
-450.0   120.0   0.0
-500.0   150.0   0.0
-500.0   120.0   16.666666666666668
-450.0   120.0   16.666666666666668
-500.0   150.0   16.666666666666668
-500.0   120.0   33.333333333333336
-450.0   120.0   16.666666666666668
-450.0   150.0   16.666666666666668
-500.0   150.0   16.666666666666668
-450.0   150.0   33.333333333333336
-500.0   120.0   33.333333333333336
-500.0   150.0   33.333333333333336
-450.0   150.0   33.333333333333336
-500.0   150.0   16.666666666666668
-500.0   120.0   33.333333333333336
-450.0   150.0   33.333333333333336
-450.0   120.0   33.333333333333336
-450.0   120.0   16.666666666666668
-500.0   120.0   33.333333333333336
-450.0   150.0   33.333333333333336
-450.0   120.0   16.666666666666668
-500.0   150.0   16.666666666666668
-500.0   120.0   33.333333333333336
-450.0   120.0   33.333333333333336
-500.0   150.0   33.333333333333336
-500.0   120.0   50.0
-450.0   120.0   33.333333333333336
-450.0   150.0   33.333333333333336
-500.0   150.0   33.333333333333336
-450.0   150.0   50.0
-500.0   120.0   50.0
-500.0   150.0   50.0
-450.0   150.0   50.0
-500.0   150.0   33.333333333333336
-500.0   120.0   50.0
-450.0   150.0   50.0
-450.0   120.0   50.0
-450.0   120.0   33.333333333333336
-500.0   120.0   50.0
-450.0   150.0   50.0
-450.0   120.0   33.333333333333336
-500.0   150.0   33.333333333333336
-450.0   0.0   0.0
-400.0   0.0   0.0
-450.0   30.0   0.0
-450.0   0.0   16.666666666666668
-400.0   0.0   0.0
-400.0   30.0   0.0
-450.0   30.0   0.0
-400.0   30.0   16.666666666666668
-450.0   0.0   16.666666666666668
-450.0   30.0   16.666666666666668
-400.0   30.0   16.666666666666668
-450.0   30.0   0.0
-450.0   0.0   16.666666666666668
-400.0   30.0   16.666666666666668
-400.0   0.0   16.666666666666668
-400.0   0.0   0.0
-450.0   0.0   16.666666666666668
-400.0   30.0   16.666666666666668
-400.0   0.0   0.0
-450.0   30.0   0.0
-450.0   0.0   16.666666666666668
-400.0   0.0   16.666666666666668
-450.0   30.0   16.666666666666668
[...]
          <PointData>  
             <DataArray type="Float64" NumberOfComponents="3" Name="Strains" format="ascii">   
-0.00012566627725337952   0.0   -8.23887298536607e-05
-0.00012566627725337952   0.0   -8.23887298536607e-05
-0.00012566627725337952   0.0   -8.23887298536607e-05
-0.00012566627725337952   0.0   -8.23887298536607e-05
-7.997242082077932e-05   1.3932860892949838e-05   2.1274140697760137e-06
-7.997242082077932e-05   1.3932860892949838e-05   2.1274140697760137e-06
-7.997242082077932e-05   1.3932860892949838e-05   2.1274140697760137e-06
-7.997242082077932e-05   1.3932860892949838e-05   2.1274140697760137e-06
-7.839695842424515e-05   0.0   -7.774734525313976e-05
-7.839695842424515e-05   0.0   -7.774734525313976e-05
-7.839695842424515e-05   0.0   -7.774734525313976e-05
-7.839695842424515e-05   0.0   -7.774734525313976e-05
-0.0001315232909270103   1.671468108232368e-05   7.677336020749895e-07
-0.0001315232909270103   1.671468108232368e-05   7.677336020749895e-07
-0.0001315232909270103   1.671468108232368e-05   7.677336020749895e-07
-0.0001315232909270103   1.671468108232368e-05   7.677336020749895e-07
-0.00010203161783881216   3.867820500434125e-06   -4.0676938529121486e-05
-0.00010203161783881216   3.867820500434125e-06   -4.0676938529121486e-05
-0.00010203161783881216   3.867820500434125e-06   -4.0676938529121486e-05
-0.00010203161783881216   3.867820500434125e-06   -4.0676938529121486e-05
-0.00013152329092701054   0.0   -8.777615390253397e-05
-0.00013152329092701054   0.0   -8.777615390253397e-05
-0.00013152329092701054   0.0   -8.777615390253397e-05
-0.00013152329092701054   0.0   -8.777615390253397e-05
-7.839695842424515e-05   1.6714681082323707e-05   1.0796542251469187e-05
-7.839695842424515e-05   1.6714681082323707e-05   1.0796542251469187e-05
-7.839695842424515e-05   1.6714681082323707e-05   1.0796542251469187e-05
-7.839695842424515e-05   1.6714681082323707e-05   1.0796542251469187e-05
-7.8624683812932e-05   0.0   -7.965211219230365e-05
-7.8624683812932e-05   0.0   -7.965211219230365e-05
-7.8624683812932e-05   0.0   -7.965211219230365e-05
-7.8624683812932e-05   0.0   -7.965211219230365e-05
-0.0001356396589035724   1.7905773259718598e-05   4.629382336266216e-06
-0.0001356396589035724   1.7905773259718598e-05   4.629382336266216e-06
-0.0001356396589035724   1.7905773259718598e-05   4.629382336266216e-06
-0.0001356396589035724   1.7905773259718598e-05   4.629382336266216e-06
-0.00010507398736997109   6.770034758525246e-06   -3.963196045235327e-05
-0.00010507398736997109   6.770034758525246e-06   -3.963196045235327e-05
-0.00010507398736997109   6.770034758525246e-06   -3.963196045235327e-05
-0.00010507398736997109   6.770034758525246e-06   -3.963196045235327e-05
-0.00013563965890357263   0.0   -9.039557614813482e-05
-0.00013563965890357263   0.0   -9.039557614813482e-05
-0.00013563965890357263   0.0   -9.039557614813482e-05
-0.00013563965890357263   0.0   -9.039557614813482e-05
-7.8624683812932e-05   1.7905773259718598e-05   1.5372846292097342e-05
-7.8624683812932e-05   1.7905773259718598e-05   1.5372846292097342e-05
-7.8624683812932e-05   1.7905773259718598e-05   1.5372846292097342e-05
-7.8624683812932e-05   1.7905773259718598e-05   1.5372846292097342e-05
-7.859083316390852e-05   0.0   -8.014051551688484e-05
-7.859083316390852e-05   0.0   -8.014051551688484e-05
-7.859083316390852e-05   0.0   -8.014051551688484e-05
-7.859083316390852e-05   0.0   -8.014051551688484e-05
-0.00014450086792641026   2.039369799918553e-05   1.7473323621107126e-05
-0.00014450086792641026   2.039369799918553e-05   1.7473323621107126e-05
-0.00014450086792641026   2.039369799918553e-05   1.7473323621107126e-05
-0.00014450086792641026   2.039369799918553e-05   1.7473323621107126e-05
-0.00010711524603374038   8.545883859374979e-06   -3.772735771612296e-05
-0.00010711524603374038   8.545883859374979e-06   -3.772735771612296e-05
-0.00010711524603374038   8.545883859374979e-06   -3.772735771612296e-05
-0.00010711524603374038   8.545883859374979e-06   -3.772735771612296e-05
-7.997242082077945e-05   0.0   -7.402901331789078e-05
-7.997242082077945e-05   0.0   -7.402901331789078e-05
-7.997242082077945e-05   0.0   -7.402901331789078e-05
-7.997242082077945e-05   0.0   -7.402901331789078e-05
-3.641220336714138e-05   5.112234174994813e-06   1.638689609836202e-06
-3.641220336714138e-05   5.112234174994813e-06   1.638689609836202e-06
-3.641220336714138e-05   5.112234174994813e-06   1.638689609836202e-06
-3.641220336714138e-05   5.112234174994813e-06   1.638689609836202e-06
-3.5027205958291046e-05   0.0   -7.33826651389925e-05
-3.5027205958291046e-05   0.0   -7.33826651389925e-05
-3.5027205958291046e-05   0.0   -7.33826651389925e-05
-3.5027205958291046e-05   0.0   -7.33826651389925e-05
-7.839695842424515e-05   7.274466856912055e-06   -5.464424476549586e-06
-7.839695842424515e-05   7.274466856912055e-06   -5.464424476549586e-06
-7.839695842424515e-05   7.274466856912055e-06   -5.464424476549586e-06
-7.839695842424515e-05   7.274466856912055e-06   -5.464424476549586e-06
-5.7499813389535155e-05   5.38623482415233e-07   -3.62514935097012e-05
-5.7499813389535155e-05   5.38623482415233e-07   -3.62514935097012e-05
-5.7499813389535155e-05   5.38623482415233e-07   -3.62514935097012e-05
-5.7499813389535155e-05   5.38623482415233e-07   -3.62514935097012e-05
-7.839695842424508e-05   0.0   -7.774734525313969e-05
-7.839695842424508e-05   0.0   -7.774734525313969e-05
-7.839695842424508e-05   0.0   -7.774734525313969e-05
-7.839695842424508e-05   0.0   -7.774734525313969e-05
-3.5027205958291046e-05   7.274466856912055e-06   -1.0997443624023343e-06
-3.5027205958291046e-05   7.274466856912055e-06   -1.0997443624023343e-06
-3.5027205958291046e-05   7.274466856912055e-06   -1.0997443624023343e-06
-3.5027205958291046e-05   7.274466856912055e-06   -1.0997443624023343e-06
-3.425205980279884e-05   0.0   -7.43051870893679e-05
-3.425205980279884e-05   0.0   -7.43051870893679e-05
-3.425205980279884e-05   0.0   -7.43051870893679e-05
-3.425205980279884e-05   0.0   -7.43051870893679e-05
-7.8624683812932e-05   8.91154183822626e-06   -5.697738842081737e-06
-7.8624683812932e-05   8.91154183822626e-06   -5.697738842081737e-06
-7.8624683812932e-05   8.91154183822626e-06   -5.697738842081737e-06
-7.8624683812932e-05   8.91154183822626e-06   -5.697738842081737e-06
-5.632450911352188e-05   2.868465136476536e-06   -3.923885065338177e-05
-5.632450911352188e-05   2.868465136476536e-06   -3.923885065338177e-05
-5.632450911352188e-05   2.868465136476536e-06   -3.923885065338177e-05
-5.632450911352188e-05   2.868465136476536e-06   -3.923885065338177e-05
-7.8624683812932e-05   0.0   -7.965211219230365e-05
-7.8624683812932e-05   0.0   -7.965211219230365e-05
-7.8624683812932e-05   0.0   -7.965211219230365e-05
-7.8624683812932e-05   0.0   -7.965211219230365e-05
-3.425205980279884e-05   8.91154183822626e-06   -3.508137391459735e-07
-3.425205980279884e-05   8.91154183822626e-06   -3.508137391459735e-07
-3.425205980279884e-05   8.91154183822626e-06   -3.508137391459735e-07
-3.425205980279884e-05   8.91154183822626e-06   -3.508137391459735e-07
-3.3547324096918515e-05   0.0   -7.391968799240835e-05
-3.3547324096918515e-05   0.0   -7.391968799240835e-05
-3.3547324096918515e-05   0.0   -7.391968799240835e-05
-3.3547324096918515e-05   0.0   -7.391968799240835e-05
-7.859083316390831e-05   1.0368045874127352e-05   -5.068000405234819e-06
-7.859083316390831e-05   1.0368045874127352e-05   -5.068000405234819e-06
-7.859083316390831e-05   1.0368045874127352e-05   -5.068000405234819e-06
-7.859083316390831e-05   1.0368045874127352e-05   -5.068000405234819e-06
-5.6086003954925246e-05   4.777020166579383e-06   -3.922143366234476e-05
-5.6086003954925246e-05   4.777020166579383e-06   -3.922143366234476e-05
-5.6086003954925246e-05   4.777020166579383e-06   -3.922143366234476e-05
-5.6086003954925246e-05   4.777020166579383e-06   -3.922143366234476e-05
-3.641220336714144e-05   0.0   -7.09616728128939e-05
-3.641220336714144e-05   0.0   -7.09616728128939e-05
-3.641220336714144e-05   0.0   -7.09616728128939e-05
-3.641220336714144e-05   0.0   -7.09616728128939e-05
4.749687099944023e-06   -6.532899665076281e-07   -2.7504960143226267e-06
4.749687099944023e-06   -6.532899665076281e-07   -2.7504960143226267e-06
4.749687099944023e-06   -6.532899665076281e-07   -2.7504960143226267e-06
4.749687099944023e-06   -6.532899665076281e-07   -2.7504960143226267e-06
5.630654315926407e-06   0.0   -7.26093074004086e-05
5.630654315926407e-06   0.0   -7.26093074004086e-05
5.630654315926407e-06   0.0   -7.26093074004086e-05
5.630654315926407e-06   0.0   -7.26093074004086e-05
-3.5027205958291046e-05   1.2889295643060954e-06   -5.6195646819633946e-06
-3.5027205958291046e-05   1.2889295643060954e-06   -5.6195646819633946e-06
-3.5027205958291046e-05   1.2889295643060954e-06   -5.6195646819633946e-06
-3.5027205958291046e-05   1.2889295643060954e-06   -5.6195646819633946e-06
-1.5390774525607482e-05   -1.3730288229291324e-06   -3.6749775370761395e-05
-1.5390774525607482e-05   -1.3730288229291324e-06   -3.6749775370761395e-05
-1.5390774525607482e-05   -1.3730288229291324e-06   -3.6749775370761395e-05
-1.5390774525607482e-05   -1.3730288229291324e-06   -3.6749775370761395e-05
-3.5027205958291046e-05   0.0   -7.33826651389925e-05
-3.5027205958291046e-05   0.0   -7.33826651389925e-05
-3.5027205958291046e-05   0.0   -7.33826651389925e-05
-3.5027205958291046e-05   0.0   -7.33826651389925e-05
5.6306543159264174e-06   1.2889295643060819e-06   -4.846206943379732e-06
5.6306543159264174e-06   1.2889295643060819e-06   -4.846206943379732e-06
5.6306543159264174e-06   1.2889295643060819e-06   -4.846206943379732e-06
5.6306543159264174e-06   1.2889295643060819e-06   -4.846206943379732e-06
6.325092892861838e-06   0.0   -7.250593813483292e-05
6.325092892861838e-06   0.0   -7.250593813483292e-05
6.325092892861838e-06   0.0   -7.250593813483292e-05
6.325092892861838e-06   0.0   -7.250593813483292e-05
-3.425205980279878e-05   2.9987482575580742e-06   -6.676599263266744e-06
-3.425205980279878e-05   2.9987482575580742e-06   -6.676599263266744e-06
-3.425205980279878e-05   2.9987482575580742e-06   -6.676599263266744e-06
-3.425205980279878e-05   2.9987482575580742e-06   -6.676599263266744e-06
-1.4351056532714598e-05   7.306058367995456e-07   -3.848405259428534e-05
-1.4351056532714598e-05   7.306058367995456e-07   -3.848405259428534e-05
-1.4351056532714598e-05   7.306058367995456e-07   -3.848405259428534e-05
-1.4351056532714598e-05   7.306058367995456e-07   -3.848405259428534e-05
-3.425205980279884e-05   0.0   -7.43051870893679e-05
-3.425205980279884e-05   0.0   -7.43051870893679e-05
-3.425205980279884e-05   0.0   -7.43051870893679e-05
-3.425205980279884e-05   0.0   -7.43051870893679e-05
6.325092892861849e-06   2.9987482575581013e-06   -4.8773503087319e-06
6.325092892861849e-06   2.9987482575581013e-06   -4.8773503087319e-06
6.325092892861849e-06   2.9987482575581013e-06   -4.8773503087319e-06
6.325092892861849e-06   2.9987482575581013e-06   -4.8773503087319e-06
7.261664879808729e-06   0.0   -7.093195895802096e-05
7.261664879808729e-06   0.0   -7.093195895802096e-05
7.261664879808729e-06   0.0   -7.093195895802096e-05
7.261664879808729e-06   0.0   -7.093195895802096e-05
-3.354732409691849e-05   4.979548390645551e-06   -5.904706364529588e-06
-3.354732409691849e-05   4.979548390645551e-06   -5.904706364529588e-06
-3.354732409691849e-05   4.979548390645551e-06   -5.904706364529588e-06
-3.354732409691849e-05   4.979548390645551e-06   -5.904706364529588e-06
-1.3495197461495025e-05   2.8110234427890146e-06   -3.802380245485475e-05
-1.3495197461495025e-05   2.8110234427890146e-06   -3.802380245485475e-05
-1.3495197461495025e-05   2.8110234427890146e-06   -3.802380245485475e-05
-1.3495197461495025e-05   2.8110234427890146e-06   -3.802380245485475e-05
4.749687099944031e-06   0.0   -7.135364679279847e-05
4.749687099944031e-06   0.0   -7.135364679279847e-05
4.749687099944031e-06   0.0   -7.135364679279847e-05
4.749687099944031e-06   0.0   -7.135364679279847e-05
4.94246539697687e-05   -5.7969721387493795e-06   -3.7355195967360975e-07
4.94246539697687e-05   -5.7969721387493795e-06   -3.7355195967360975e-07
4.94246539697687e-05   -5.7969721387493795e-06   -3.7355195967360975e-07
4.94246539697687e-05   -5.7969721387493795e-06   -3.7355195967360975e-07
4.950345281438352e-05   0.0   -7.523251895698676e-05
4.950345281438352e-05   0.0   -7.523251895698676e-05
4.950345281438352e-05   0.0   -7.523251895698676e-05
4.950345281438352e-05   0.0   -7.523251895698676e-05
5.630654315926427e-06   -4.372019260963177e-06   5.120234303529519e-07
5.630654315926427e-06   -4.372019260963177e-06   5.120234303529519e-07
5.630654315926427e-06   -4.372019260963177e-06   5.120234303529519e-07
5.630654315926427e-06   -4.372019260963177e-06   5.120234303529519e-07
2.7126569957163775e-05   -3.2323934701569137e-06   -3.599827811285968e-05
2.7126569957163775e-05   -3.2323934701569137e-06   -3.599827811285968e-05
2.7126569957163775e-05   -3.2323934701569137e-06   -3.599827811285968e-05
2.7126569957163775e-05   -3.2323934701569137e-06   -3.599827811285968e-05
5.630654315926427e-06   0.0   -7.260930740040886e-05
5.630654315926427e-06   0.0   -7.260930740040886e-05
5.630654315926427e-06   0.0   -7.260930740040886e-05
5.630654315926427e-06   0.0   -7.260930740040886e-05
4.950345281438352e-05   -4.372019260963177e-06   -2.1111881262249462e-06
4.950345281438352e-05   -4.372019260963177e-06   -2.1111881262249462e-06
4.950345281438352e-05   -4.372019260963177e-06   -2.1111881262249462e-06
4.950345281438352e-05   -4.372019260963177e-06   -2.1111881262249462e-06
4.928360612748504e-05   0.0   -7.415816189459546e-05
4.928360612748504e-05   0.0   -7.415816189459546e-05
4.928360612748504e-05   0.0   -7.415816189459546e-05
4.928360612748504e-05   0.0   -7.415816189459546e-05
6.325092892861849e-06   -2.7537062662706923e-06   -9.084160771277472e-07
6.325092892861849e-06   -2.7537062662706923e-06   -9.084160771277472e-07
6.325092892861849e-06   -2.7537062662706923e-06   -9.084160771277472e-07
6.325092892861849e-06   -2.7537062662706923e-06   -9.084160771277472e-07
2.745713022170573e-05   -1.2907120784888347e-06   -3.7006274804536634e-05
2.745713022170573e-05   -1.2907120784888347e-06   -3.7006274804536634e-05
2.745713022170573e-05   -1.2907120784888347e-06   -3.7006274804536634e-05
2.745713022170573e-05   -1.2907120784888347e-06   -3.7006274804536634e-05
6.325092892861844e-06   0.0   -7.250593813483299e-05
6.325092892861844e-06   0.0   -7.250593813483299e-05
6.325092892861844e-06   0.0   -7.250593813483299e-05
6.325092892861844e-06   0.0   -7.250593813483299e-05
4.928360612748504e-05   -2.7537062662706923e-06   -2.5606398368901653e-06
4.928360612748504e-05   -2.7537062662706923e-06   -2.5606398368901653e-06
4.928360612748504e-05   -2.7537062662706923e-06   -2.5606398368901653e-06
4.928360612748504e-05   -2.7537062662706923e-06   -2.5606398368901653e-06
5.0230557136316253e-05   0.0   -7.127910561240155e-05
5.0230557136316253e-05   0.0   -7.127910561240155e-05
5.0230557136316253e-05   0.0   -7.127910561240155e-05
5.0230557136316253e-05   0.0   -7.127910561240155e-05
7.261664879808742e-06   -5.785777573007894e-07   6.828614694914313e-07
7.261664879808742e-06   -5.785777573007894e-07   6.828614694914313e-07
7.261664879808742e-06   -5.785777573007894e-07   6.828614694914313e-07
7.261664879808742e-06   -5.785777573007894e-07   6.828614694914313e-07
2.8277825014589032e-05   1.0223604353595827e-06   -3.530463500407191e-05
2.8277825014589032e-05   1.0223604353595827e-06   -3.530463500407191e-05
2.8277825014589032e-05   1.0223604353595827e-06   -3.530463500407191e-05
2.8277825014589032e-05   1.0223604353595827e-06   -3.530463500407191e-05
4.94246539697687e-05   0.0   -7.48318300760481e-05
4.94246539697687e-05   0.0   -7.48318300760481e-05
4.94246539697687e-05   0.0   -7.48318300760481e-05
4.94246539697687e-05   0.0   -7.48318300760481e-05
0.00011153517017766095   -1.4689184772363393e-05   1.987218607368821e-05
0.00011153517017766095   -1.4689184772363393e-05   1.987218607368821e-05
0.00011153517017766095   -1.4689184772363393e-05   1.987218607368821e-05
0.00011153517017766095   -1.4689184772363393e-05   1.987218607368821e-05
0.00010473772147074882   0.0   -8.273429378856471e-05
0.00010473772147074882   0.0   -8.273429378856471e-05
0.00010473772147074882   0.0   -8.273429378856471e-05
0.00010473772147074882   0.0   -8.273429378856471e-05
4.950345281438352e-05   -1.2502958052629915e-05   1.682459547028872e-05
4.950345281438352e-05   -1.2502958052629915e-05   1.682459547028872e-05
4.950345281438352e-05   -1.2502958052629915e-05   1.682459547028872e-05
4.950345281438352e-05   -1.2502958052629915e-05   1.682459547028872e-05
7.708118772025876e-05   -6.5853864270971814e-06   -3.2688839014822946e-05
7.708118772025876e-05   -6.5853864270971814e-06   -3.2688839014822946e-05
7.708118772025876e-05   -6.5853864270971814e-06   -3.2688839014822946e-05
7.708118772025876e-05   -6.5853864270971814e-06   -3.2688839014822946e-05
4.950345281438348e-05   0.0   -7.523251895698669e-05
4.950345281438348e-05   0.0   -7.523251895698669e-05
4.950345281438348e-05   0.0   -7.523251895698669e-05
4.950345281438348e-05   0.0   -7.523251895698669e-05
0.00010473772147074846   -1.2502958052629888e-05   9.322820638710716e-06
0.00010473772147074846   -1.2502958052629888e-05   9.322820638710716e-06
0.00010473772147074846   -1.2502958052629888e-05   9.322820638710716e-06
0.00010473772147074846   -1.2502958052629888e-05   9.322820638710716e-06
0.00010159960908630205   0.0   -8.101411670468168e-05
0.00010159960908630205   0.0   -8.101411670468168e-05
0.00010159960908630205   0.0   -8.101411670468168e-05
0.00010159960908630205   0.0   -8.101411670468168e-05
4.928360612748504e-05   -1.1426591350143693e-05   1.3035176370099555e-05
4.928360612748504e-05   -1.1426591350143693e-05   1.3035176370099555e-05
4.928360612748504e-05   -1.1426591350143693e-05   1.3035176370099555e-05
4.928360612748504e-05   -1.1426591350143693e-05   1.3035176370099555e-05
7.555153095034274e-05   -4.817998123079093e-06   -3.470985427090203e-05
7.555153095034274e-05   -4.817998123079093e-06   -3.470985427090203e-05
7.555153095034274e-05   -4.817998123079093e-06   -3.470985427090203e-05
7.555153095034274e-05   -4.817998123079093e-06   -3.470985427090203e-05
4.928360612748504e-05   0.0   -7.415816189459546e-05
4.928360612748504e-05   0.0   -7.415816189459546e-05
4.928360612748504e-05   0.0   -7.415816189459546e-05
4.928360612748504e-05   0.0   -7.415816189459546e-05
0.0001015996090863017   -1.142659135014364e-05   6.179221560013293e-06
0.0001015996090863017   -1.142659135014364e-05   6.179221560013293e-06
0.0001015996090863017   -1.142659135014364e-05   6.179221560013293e-06
0.0001015996090863017   -1.142659135014364e-05   6.179221560013293e-06
9.693331556675873e-05   0.0   -7.661110353883795e-05
9.693331556675873e-05   0.0   -7.661110353883795e-05
9.693331556675873e-05   0.0   -7.661110353883795e-05
9.693331556675873e-05   0.0   -7.661110353883795e-05
5.0230557136316253e-05   -8.88666321072757e-06   6.55882510500285e-06
5.0230557136316253e-05   -8.88666321072757e-06   6.55882510500285e-06
5.0230557136316253e-05   -8.88666321072757e-06   6.55882510500285e-06
5.0230557136316253e-05   -8.88666321072757e-06   6.55882510500285e-06
7.310846084712197e-05   -2.0441180368688494e-06   -3.567654151732185e-05
7.310846084712197e-05   -2.0441180368688494e-06   -3.567654151732185e-05
7.310846084712197e-05   -2.0441180368688494e-06   -3.567654151732185e-05
7.310846084712197e-05   -2.0441180368688494e-06   -3.567654151732185e-05
-0.00010909722178394917   1.3932860892949838e-05   -7.152449729581737e-05
-0.00010909722178394917   1.3932860892949838e-05   -7.152449729581737e-05
-0.00010909722178394917   1.3932860892949838e-05   -7.152449729581737e-05
-0.00010909722178394917   1.3932860892949838e-05   -7.152449729581737e-05
-6.987013748204386e-05   1.2533449570725655e-05   -6.985670252642926e-06